# vtk DataFile Version 3.0
Unstructured Grid Example
ASCII
DATASET UNSTRUCTURED_GRID
POINTS 980 float
-9.500000e-01	 0	 0
-9.500000e-01	 1.427100e-01	 0
-8.943503e-01	 4.491526e-01	 0
-7.194913e-01	 7.194913e-01	 0
-4.491526e-01	 8.943503e-01	 0
-1.427100e-01	 9.500000e-01	 0
0	 9.500000e-01	 0
-9.583333e-01	 0	 0
-9.583333e-01	 1.439619e-01	 0
-9.021955e-01	 4.530925e-01	 0
-7.258027e-01	 7.258027e-01	 0
-4.530925e-01	 9.021955e-01	 0
-1.439619e-01	 9.583333e-01	 0
0	 9.583333e-01	 0
-9.750000e-01	 0	 0
-9.750000e-01	 1.464656e-01	 0
-9.178858e-01	 4.609724e-01	 0
-7.384253e-01	 7.384253e-01	 0
-4.609724e-01	 9.178858e-01	 0
-1.464656e-01	 9.750000e-01	 0
0	 9.750000e-01	 0
-9.916667e-01	 0	 0
-9.916667e-01	 1.489693e-01	 0
-9.335762e-01	 4.688523e-01	 0
-7.510480e-01	 7.510480e-01	 0
-4.688523e-01	 9.335762e-01	 0
-1.489693e-01	 9.916667e-01	 0
0	 9.916667e-01	 0
-1	 0	 0
-1.000000e+00	 1.502211e-01	 0
-9.414214e-01	 4.727922e-01	 0
-7.573593e-01	 7.573593e-01	 0
-4.727922e-01	 9.414214e-01	 0
-1.502211e-01	 1.000000e+00	 0
0	 1	 0
-9.500000e-01	 0	 3.000000e-01
-9.500000e-01	 1.427100e-01	 3.000000e-01
-8.943503e-01	 4.491526e-01	 3.000000e-01
-7.194913e-01	 7.194913e-01	 3.000000e-01
-4.491526e-01	 8.943503e-01	 3.000000e-01
-1.427100e-01	 9.500000e-01	 3.000000e-01
0	 9.500000e-01	 3.000000e-01
-9.583333e-01	 0	 3.000000e-01
-9.583333e-01	 1.439619e-01	 3.000000e-01
-9.021955e-01	 4.530925e-01	 3.000000e-01
-7.258027e-01	 7.258027e-01	 3.000000e-01
-4.530925e-01	 9.021955e-01	 3.000000e-01
-1.439619e-01	 9.583333e-01	 3.000000e-01
0	 9.583333e-01	 3.000000e-01
-9.750000e-01	 0	 3.000000e-01
-9.750000e-01	 1.464656e-01	 3.000000e-01
-9.178858e-01	 4.609724e-01	 3.000000e-01
-7.384253e-01	 7.384253e-01	 3.000000e-01
-4.609724e-01	 9.178858e-01	 3.000000e-01
-1.464656e-01	 9.750000e-01	 3.000000e-01
0	 9.750000e-01	 3.000000e-01
-9.916667e-01	 0	 3.000000e-01
-9.916667e-01	 1.489693e-01	 3.000000e-01
-9.335762e-01	 4.688523e-01	 3.000000e-01
-7.510480e-01	 7.510480e-01	 3.000000e-01
-4.688523e-01	 9.335762e-01	 3.000000e-01
-1.489693e-01	 9.916667e-01	 3.000000e-01
0	 9.916667e-01	 3.000000e-01
-1	 0	 3.000000e-01
-1.000000e+00	 1.502211e-01	 3.000000e-01
-9.414214e-01	 4.727922e-01	 3.000000e-01
-7.573593e-01	 7.573593e-01	 3.000000e-01
-4.727922e-01	 9.414214e-01	 3.000000e-01
-1.502211e-01	 1.000000e+00	 3.000000e-01
0	 1	 3.000000e-01
-9.500000e-01	 0	 9.000000e-01
-9.500000e-01	 1.427100e-01	 9.000000e-01
-8.943503e-01	 4.491526e-01	 9.000000e-01
-7.194913e-01	 7.194913e-01	 9.000000e-01
-4.491526e-01	 8.943503e-01	 9.000000e-01
-1.427100e-01	 9.500000e-01	 9.000000e-01
0	 9.500000e-01	 9.000000e-01
-9.583333e-01	 0	 9.000000e-01
-9.583333e-01	 1.439619e-01	 9.000000e-01
-9.021955e-01	 4.530925e-01	 9.000000e-01
-7.258027e-01	 7.258027e-01	 9.000000e-01
-4.530925e-01	 9.021955e-01	 9.000000e-01
-1.439619e-01	 9.583333e-01	 9.000000e-01
0	 9.583333e-01	 9.000000e-01
-9.750000e-01	 0	 9.000000e-01
-9.750000e-01	 1.464656e-01	 9.000000e-01
-9.178858e-01	 4.609724e-01	 9.000000e-01
-7.384253e-01	 7.384253e-01	 9.000000e-01
-4.609724e-01	 9.178858e-01	 9.000000e-01
-1.464656e-01	 9.750000e-01	 9.000000e-01
0	 9.750000e-01	 9.000000e-01
-9.916667e-01	 0	 9.000000e-01
-9.916667e-01	 1.489693e-01	 9.000000e-01
-9.335762e-01	 4.688523e-01	 9.000000e-01
-7.510480e-01	 7.510480e-01	 9.000000e-01
-4.688523e-01	 9.335762e-01	 9.000000e-01
-1.489693e-01	 9.916667e-01	 9.000000e-01
0	 9.916667e-01	 9.000000e-01
-1	 0	 9.000000e-01
-1	 1.502211e-01	 9.000000e-01
-9.414214e-01	 4.727922e-01	 9.000000e-01
-7.573593e-01	 7.573593e-01	 9.000000e-01
-4.727922e-01	 9.414214e-01	 9.000000e-01
-1.502211e-01	 1.000000e+00	 9.000000e-01
0	 1	 9.000000e-01
-9.500000e-01	 0	 1.500000e+00
-9.500000e-01	 1.427100e-01	 1.500000e+00
-8.943503e-01	 4.491526e-01	 1.500000e+00
-7.194913e-01	 7.194913e-01	 1.500000e+00
-4.491526e-01	 8.943503e-01	 1.500000e+00
-1.427100e-01	 9.500000e-01	 1.500000e+00
0	 9.500000e-01	 1.500000e+00
-9.583333e-01	 0	 1.500000e+00
-9.583333e-01	 1.439619e-01	 1.500000e+00
-9.021955e-01	 4.530925e-01	 1.500000e+00
-7.258027e-01	 7.258027e-01	 1.500000e+00
-4.530925e-01	 9.021955e-01	 1.500000e+00
-1.439619e-01	 9.583333e-01	 1.500000e+00
0	 9.583333e-01	 1.500000e+00
-9.750000e-01	 0	 1.500000e+00
-9.750000e-01	 1.464656e-01	 1.500000e+00
-9.178858e-01	 4.609724e-01	 1.500000e+00
-7.384253e-01	 7.384253e-01	 1.500000e+00
-4.609724e-01	 9.178858e-01	 1.500000e+00
-1.464656e-01	 9.750000e-01	 1.500000e+00
0	 9.750000e-01	 1.500000e+00
-9.916667e-01	 0	 1.500000e+00
-9.916667e-01	 1.489693e-01	 1.500000e+00
-9.335762e-01	 4.688523e-01	 1.500000e+00
-7.510480e-01	 7.510480e-01	 1.500000e+00
-4.688523e-01	 9.335762e-01	 1.500000e+00
-1.489693e-01	 9.916667e-01	 1.500000e+00
0	 9.916667e-01	 1.500000e+00
-1	 0	 1.500000e+00
-1.000000e+00	 1.502211e-01	 1.500000e+00
-9.414214e-01	 4.727922e-01	 1.500000e+00
-7.573593e-01	 7.573593e-01	 1.500000e+00
-4.727922e-01	 9.414214e-01	 1.500000e+00
-1.502211e-01	 1	 1.500000e+00
0	 1	 1.500000e+00
-9.500000e-01	 0	 2.100000e+00
-9.500000e-01	 1.427100e-01	 2.100000e+00
-8.943503e-01	 4.491526e-01	 2.100000e+00
-7.194913e-01	 7.194913e-01	 2.100000e+00
-4.491526e-01	 8.943503e-01	 2.100000e+00
-1.427100e-01	 9.500000e-01	 2.100000e+00
0	 9.500000e-01	 2.100000e+00
-9.583333e-01	 0	 2.100000e+00
-9.583333e-01	 1.439619e-01	 2.100000e+00
-9.021955e-01	 4.530925e-01	 2.100000e+00
-7.258027e-01	 7.258027e-01	 2.100000e+00
-4.530925e-01	 9.021955e-01	 2.100000e+00
-1.439619e-01	 9.583333e-01	 2.100000e+00
0	 9.583333e-01	 2.100000e+00
-9.750000e-01	 0	 2.100000e+00
-9.750000e-01	 1.464656e-01	 2.100000e+00
-9.178858e-01	 4.609724e-01	 2.100000e+00
-7.384253e-01	 7.384253e-01	 2.100000e+00
-4.609724e-01	 9.178858e-01	 2.100000e+00
-1.464656e-01	 9.750000e-01	 2.100000e+00
0	 9.750000e-01	 2.100000e+00
-9.916667e-01	 0	 2.100000e+00
-9.916667e-01	 1.489693e-01	 2.100000e+00
-9.335762e-01	 4.688523e-01	 2.100000e+00
-7.510480e-01	 7.510480e-01	 2.100000e+00
-4.688523e-01	 9.335762e-01	 2.100000e+00
-1.489693e-01	 9.916667e-01	 2.100000e+00
0	 9.916667e-01	 2.100000e+00
-1	 0	 2.100000e+00
-1.000000e+00	 1.502211e-01	 2.100000e+00
-9.414214e-01	 4.727922e-01	 2.100000e+00
-7.573593e-01	 7.573593e-01	 2.100000e+00
-4.727922e-01	 9.414214e-01	 2.100000e+00
-1.502211e-01	 1	 2.100000e+00
0	 1	 2.100000e+00
-9.500000e-01	 0	 2.700000e+00
-9.500000e-01	 1.427100e-01	 2.700000e+00
-8.943503e-01	 4.491526e-01	 2.700000e+00
-7.194913e-01	 7.194913e-01	 2.700000e+00
-4.491526e-01	 8.943503e-01	 2.700000e+00
-1.427100e-01	 9.500000e-01	 2.700000e+00
0	 9.500000e-01	 2.700000e+00
-9.583333e-01	 0	 2.700000e+00
-9.583333e-01	 1.439619e-01	 2.700000e+00
-9.021955e-01	 4.530925e-01	 2.700000e+00
-7.258027e-01	 7.258027e-01	 2.700000e+00
-4.530925e-01	 9.021955e-01	 2.700000e+00
-1.439619e-01	 9.583333e-01	 2.700000e+00
0	 9.583333e-01	 2.700000e+00
-9.750000e-01	 0	 2.700000e+00
-9.750000e-01	 1.464656e-01	 2.700000e+00
-9.178858e-01	 4.609724e-01	 2.700000e+00
-7.384253e-01	 7.384253e-01	 2.700000e+00
-4.609724e-01	 9.178858e-01	 2.700000e+00
-1.464656e-01	 9.750000e-01	 2.700000e+00
0	 9.750000e-01	 2.700000e+00
-9.916667e-01	 0	 2.700000e+00
-9.916667e-01	 1.489693e-01	 2.700000e+00
-9.335762e-01	 4.688523e-01	 2.700000e+00
-7.510480e-01	 7.510480e-01	 2.700000e+00
-4.688523e-01	 9.335762e-01	 2.700000e+00
-1.489693e-01	 9.916667e-01	 2.700000e+00
0	 9.916667e-01	 2.700000e+00
-1	 0	 2.700000e+00
-1.000000e+00	 1.502211e-01	 2.700000e+00
-9.414214e-01	 4.727922e-01	 2.700000e+00
-7.573593e-01	 7.573593e-01	 2.700000e+00
-4.727922e-01	 9.414214e-01	 2.700000e+00
-1.502211e-01	 1.000000e+00	 2.700000e+00
0	 1	 2.700000e+00
-9.500000e-01	 0	 3
-9.500000e-01	 1.427100e-01	 3
-8.943503e-01	 4.491526e-01	 3
-7.194913e-01	 7.194913e-01	 3
-4.491526e-01	 8.943503e-01	 3
-1.427100e-01	 9.500000e-01	 3
0	 9.500000e-01	 3
-9.583333e-01	 0	 3.000000e+00
-9.583333e-01	 1.439619e-01	 3
-9.021955e-01	 4.530925e-01	 3
-7.258027e-01	 7.258027e-01	 3.000000e+00
-4.530925e-01	 9.021955e-01	 3
-1.439619e-01	 9.583333e-01	 3
0	 9.583333e-01	 3
-9.750000e-01	 0	 3.000000e+00
-9.750000e-01	 1.464656e-01	 3
-9.178858e-01	 4.609724e-01	 3
-7.384253e-01	 7.384253e-01	 3.000000e+00
-4.609724e-01	 9.178858e-01	 3
-1.464656e-01	 9.750000e-01	 3.000000e+00
0	 9.750000e-01	 3.000000e+00
-9.916667e-01	 0	 3
-9.916667e-01	 1.489693e-01	 3.000000e+00
-9.335762e-01	 4.688523e-01	 3
-7.510480e-01	 7.510480e-01	 3
-4.688523e-01	 9.335762e-01	 3
-1.489693e-01	 9.916667e-01	 3.000000e+00
0	 9.916667e-01	 3
-1	 0	 3
-1.000000e+00	 1.502211e-01	 3
-9.414214e-01	 4.727922e-01	 3
-7.573593e-01	 7.573593e-01	 3
-4.727922e-01	 9.414214e-01	 3
-1.502211e-01	 1.000000e+00	 3
0	 1	 3
0	 9.500000e-01	 0
1.427100e-01	 9.500000e-01	 0
4.491526e-01	 8.943503e-01	 0
7.194913e-01	 7.194913e-01	 0
8.943503e-01	 4.491526e-01	 0
9.500000e-01	 1.427100e-01	 0
9.500000e-01	 0	 0
0	 9.583333e-01	 0
1.439619e-01	 9.583333e-01	 0
4.530925e-01	 9.021955e-01	 0
7.258027e-01	 7.258027e-01	 0
9.021955e-01	 4.530925e-01	 0
9.583333e-01	 1.439619e-01	 0
9.583333e-01	 0	 0
0	 9.750000e-01	 0
1.464656e-01	 9.750000e-01	 0
4.609724e-01	 9.178858e-01	 0
7.384253e-01	 7.384253e-01	 0
9.178858e-01	 4.609724e-01	 0
9.750000e-01	 1.464656e-01	 0
9.750000e-01	 0	 0
0	 9.916667e-01	 0
1.489693e-01	 9.916667e-01	 0
4.688523e-01	 9.335762e-01	 0
7.510480e-01	 7.510480e-01	 0
9.335762e-01	 4.688523e-01	 0
9.916667e-01	 1.489693e-01	 0
9.916667e-01	 0	 0
0	 1	 0
1.502211e-01	 1.000000e+00	 0
4.727922e-01	 9.414214e-01	 0
7.573593e-01	 7.573593e-01	 0
9.414214e-01	 4.727922e-01	 0
1.000000e+00	 1.502211e-01	 0
1	 0	 0
0	 9.500000e-01	 3.000000e-01
1.427100e-01	 9.500000e-01	 3.000000e-01
4.491526e-01	 8.943503e-01	 3.000000e-01
7.194913e-01	 7.194913e-01	 3.000000e-01
8.943503e-01	 4.491526e-01	 3.000000e-01
9.500000e-01	 1.427100e-01	 3.000000e-01
9.500000e-01	 0	 3.000000e-01
0	 9.583333e-01	 3.000000e-01
1.439619e-01	 9.583333e-01	 3.000000e-01
[...]
CELL_DATA 2464
SCALARS Pid float 1
LOOKUP_TABLE default
1
1
1
1
1
1
1
1
1
1
1
1
1
1
1
1
1
1
1
1
1
1
1
1
1
1
1
1
1
1
1
1
1
1
1
1
1
1
1
1
1
1
1
1
1
1
1
1
1
1
1
1
1
1
1
1
1
1
1
1
1
1
1
1
1
1
1
1
1
1
1
1
1
1
1
1
1
1
1
1
1
1
1
1
1
1
1
1
1
1
1
1
1
1
1
1
1
1
1
1
1
1
1
1
1
1
1
1
1
1
1
1
1
1
1
1
1
1
1
1
1
1
1
1
1
1
1
1
1
1
1
1
1
1
1
1
1
1
1
1
1
1
1
1
1
1
1
1
1
1
1
1
1
1
1
1
1
1
1
1
1
1
1
1
1
1
1
1
1
1
1
1
1
1
1
1
1
1
1
1
1
1
1
1
1
1
1
1
1
1
1
1
1
1
1
1
1
1
1
1
1
1
1
1
1
1
1
1
1
1
1
1
1
1
1
1
1
1
1
1
1
1
1
1
1
1
1
1
1
1
1
1
1
1
1
1
1
1
1
1
1
1
1
1
1
1
1
1
1
1
1
1
1
1
1
1
1
1
1
1
1
1
1
1
1
1
1
1
1
1
1
1
1
1
1
1
1
1
1
1
1
1
1
1
1
1
1
1
1
1
1
1
1
1
1
1
1
1
1
1
1
1
1
1
1
1
1
1
1
1
1
1
1
1
1
1
1
1
1
1
1
1
1
1
1
1
1
1
1
1
1
1
1
1
1
1
1
1
1
1
1
1
1
1
1
1
1
1
1
1
1
1
1
1
1
1
1
1
1
1
1
1
1
1
1
1
1
1
1
1
1
1
1
1
1
1
1
1
1
1
1
1
1
1
1
1
1
1
1
1
1
1
1
1
1
1
1
1
1
1
1
1
1
1
1
1
1
1
1
1
1
1
1
1
1
1
1
1
1
1
1
1
1
1
1
1
1
1
1
1
1
1
1
1
1
1
1
1
1
1
1
1
1
1
1
1
1
1
1
1
1
1
1
1
1
1
1
1
1
1
1
1
1
1
1
1
1
1
1
1
1
1
1
1
1
1
1
1
1
1
1
1
1
1
1
1
1
1
1
1
1
1
1
1
1
1
1
1
1
1
1
1
1
1
1
1
1
1
1
1
1
1
1
1
1
1
1
1
1
1
1
1
1
1
1
1
1
1
1
1
1
1
1
1
1
1
1
1
1
1
1
1
1
1
1
1
1
1
1
1
1
1
1
1
1
1
1
1
1
1
1
1
1
1
1
1
1
1
1
1
1
1
1
1
1
1
1
1
1
1
1
1
1
1
1
1
1
1
1
1
1
1
1
1
1
1
1
1
1
1
1
1
1
1
1
1
1
1
1
1
1
1
1
1
1
1
2
2
2
2
2
2
2
2
2
2
2
2
2
2
2
2
2
2
2
2
2
2
2
2
2
2
2
2
2
2
2
2
2
2
2
2
2
2
2
2
2
2
2
2
2
2
2
2
2
2
2
2
2
2
2
2
2
2
2
2
2
2
2
2
2
2
2
2
2
2
2
2
2
2
2
2
2
2
2
2
2
2
2
2
2
2
2
2
2
2
2
2
2
2
2
2
2
2
2
2
2
2
2
2
2
2
2
2
2
2
2
2
2
2
2
2
2
2
2
2
2
2
2
2
2
2
2
2
2
2
2
2
2
2
2
2
2
2
2
2
2
2
2
2
2
2
2
2
2
2
2
2
2
2
2
2
2
2
2
2
2
2
2
2
2
2
2
2
2
2
2
2
2
2
2
2
2
2
2
2
2
2
2
2
2
2
2
2
2
2
2
2
2
2
2
2
2
2
2
2
2
2
2
2
2
2
2
2
2
2
2
2
2
2
2
2
2
2
2
2
2
2
2
2
2
2
2
2
2
2
2
2
2
2
2
2
2
2
2
2
2
2
2
2
2
2
2
2
2
2
2
2
2
2
2
2
2
2
2
2
2
2
2
2
2
2
2
2
2
2
2
2
2
2
2
2
2
2
2
2
2
2
2
2
2
2
2
2
2
2
2
2
2
2
2
2
2
2
2
2
2
2
2
2
2
2
2
2
2
2
2
2
2
2
2
2
2
2
2
2
2
2
2
2
2
2
2
2
2
2
2
2
2
2
2
2
2
2
2
2
2
2
2
2
2
2
2
2
2
2
2
2
2
2
2
2
2
2
2
2
2
2
2
2
2
2
2
2
2
2
2
2
2
2
2
2
2
2
2
2
2
2
2
2
2
2
2
2
2
2
2
2
2
2
2
2
2
2
2
2
2
2
2
2
2
2
2
2
2
2
2
2
2
2
2
2
2
2
2
2
2
2
2
2
2
2
2
2
2
2
2
2
2
2
2
2
2
2
2
2
2
2
2
2
2
2
2
2
2
2
2
2
2
2
2
2
2
2
2
2
2
2
2
2
2
2
2
2
2
2
2
2
2
2
2
2
2
2
2
2
2
2
2
2
2
2
2
2
2
2
2
2
2
2
2
2
2
2
2
2
2
2
2
2
2
2
2
2
2
2
2
2
2
2
2
2
2
2
2
2
2
2
2
2
2
2
2
2
2
2
2
2
2
2
2
2
2
2
2
2
2
2
2
2
2
2
2
2
2
2
2
2
2
2
2
2
2
2
2
2
2
2
2
2
2
2
2
2
2
2
2
2
2
2
2
2
2
2
2
2
2
2
2
2
2
2
2
2
2
2
2
2
2
2
2
2
2
2
2
2
2
2
2
2
2
2
2
2
2
2
2
2
2
2
2
2
3
3
3
3
3
3
3
3
3
3
3
3
3
3
3
3
3
3
3
3
3
3
3
3
3
3
3
3
3
3
3
3
3
3
3
3
3
3
3
3
3
3
3
3
3
3
3
3
3
3
3
3
3
3
3
3
3
3
3
3
3
3
3
3
3
3
3
3
3
3
3
3
3
3
3
3
3
3
3
3
3
3
3
3
3
3
3
3
3
3
3
3
3
3
3
3
3
3
3
3
3
3
3
3
3
3
3
3
3
3
3
3
3
3
3
3
3
3
3
3
3
3
3
3
3
3
3
3
3
3
3
3
3
3
3
3
3
3
3
3
3
3
3
3
3
3
3
3
3
3
3
3
3
3
3
3
3
3
3
3
3
3
3
3
3
3
3
3
3
3
3
3
3
3
3
3
3
3
3
3
3
3
3
3
3
3
3
3
3
3
3
3
3
3
3
3
3
3
3
3
3
3
3
3
3
3
3
3
3
3
3
3
3
3
3
3
3
3
3
3
3
3
3
3
3
3
3
3
3
3
3
3
3
3
3
3
3
3
3
3
3
3
3
3
3
3
3
3
3
3
3
3
3
3
3
3
3
3
3
3
3
3
3
3
3
3
3
3
3
3
3
3
3
3
3
3
3
3
3
3
3
3
3
3
3
3
3
3
3
3
3
3
3
3
3
3
3
3
3
3
3
3
3
3
3
3
3
3
3
3
3
3
3
3
3
3
3
3
3
3
3
3
3
3
3
3
3
3
3
3
3
3
3
3
3
3
3
3
3
3
3
3
3
3
3
3
3
3
3
3
3
3
3
3
3
3
3
3
3
3
3
3
3
3
3
3
3
3
3
3
3
3
3
3
3
3
3
3
3
3
3
3
3
3
3
3
3
3
3
3
3
3
3
3
3
3
3
3
3
3
3
3
3
3
3
3
3
3
3
3
3
3
3
3
3
3
3
3
3
3
3
3
3
3
3
3
3
3
3
3
3
3
3
3
3
3
3
3
3
3
3
3
3
3
3
3
3
3
3
3
3
3
3
3
3
3
3
3
3
3
3
3
3
3
3
3
3
3
3
3
3
3
3
3
3
3
3
3
3
3
3
3
3
3
3
3
3
3
3
3
3
3
3
3
3
3
3
3
3
3
3
3
3
3
3
3
3
3
3
3
3
3
3
3
3
3
3
3
3
3
3
3
3
3
3
3
3
3
3
3
3
3
3
3
3
3
3
3
3
3
3
3
3
3
3
3
3
3
3
3
3
3
3
3
3
3
3
3
3
3
3
3
3
3
3
3
3
3
3
3
3
3
3
3
3
3
3
3
3
3
3
3
3
3
3
3
3
3
3
3
3
3
3
3
3
3
3
3
3
3
3
3
3
3
3
3
3
3
3
3
3
3
3
3
3
3
4
4
4
4
4
4
4
4
4
4
4
4
4
4
4
4
4
4
4
4
4
4
4
4
4
4
4
4
4
4
4
4
4
4
4
4
4
4
4
4
4
4
4
4
4
4
4
4
4
4
4
4
4
4
4
4
4
4
4
4
4
4
4
4
4
4
4
4
4
4
4
4
4
4
4
4
4
4
4
4
4
4
4
4
4
4
4
4
4
4
4
4
4
4
4
4
4
4
4
4
4
4
4
4
4
4
4
4
4
4
4
4
4
4
4
4
4
4
4
4
4
4
4
4
4
4
4
4
4
4
4
4
4
4
4
4
4
4
4
4
4
4
4
4
4
4
4
4
4
4
4
4
4
4
4
4
4
4
4
4
4
4
4
4
4
4
4
4
4
4
4
4
4
4
4
4
4
4
4
4
4
4
4
4
4
4
4
4
4
4
4
4
4
4
4
4
4
4
4
4
4
4
4
4
4
4
4
4
4
4
4
4
4
4
4
4
4
4
4
4
4
4
4
4
4
4
4
4
4
4
4
4
4
4
4
4
4
4
4
4
4
4
4
4
4
4
4
4
4
4
4
4
4
4
4
4
4
4
4
4
4
4
4
4
4
4
4
4
4
4
4
4
4
4
4
4
4
4
4
4
4
4
4
4
4
4
4
4
4
4
4
4
4
4
4
4
4
4
4
4
4
4
4
4
4
4
4
4
4
4
4
4
4
4
4
4
4
4
4
4
4
4
4
4
4
4
4
4
4
4
4
4
4
4
4
4
4
4
4
4
4
4
4
4
4
4
4
4
4
4
4
4
4
4
4
4
4
4
4
4
4
4
4
4
4
4
4
4
4
4
4
4
4
4
4
4
4
4
4
4
4
4
4
4
4
4
4
4
4
4
4
4
4
4
4
4
4
4
4
4
4
4
4
4
4
4
4
4
4
4
4
4
4
4
4
4
4
4
4
4
4
4
4
4
4
4
4
4
4
4
4
4
4
4
4
4
4
4
4
4
4
4
4
4
4
4
4
4
4
4
4
4
4
4
4
4
4
4
4
4
4
4
4
4
4
4
4
4
4
4
4
4
4
4
4
4
4
4
4
4
4
4
4
4
4
4
4
4
4
4
4
4
4
4
4
4
4
4
4
4
4
4
4
4
4
4
4
4
4
4
4
4
4
4
4
4
4
4
4
4
4
4
4
4
4
4
4
4
4
4
4
4
4
4
4
4
4
4
4
4
4
4
4
4
4
4
4
4
4
4
4
4
4
4
4
4
4
4
4
4
4
4
4
4
4
4
4
4
4
4
4
4
4
4
4
4
4
4
4
4
4
4
4
4
4
4
4
4
4
4
4
4
4
4
4
4
4
4
4
4
4
4
4
4
4
4
4
4
4
4
4
4
4
4
4
4
 
POINT_DATA 980
VECTORS displacement float
0	 0	 -9.113165e-17
0	 0	 -9.150389e-17
0	 0	 -9.220412e-17
0	 0	 -9.125125e-17
0	 0	 -8.940342e-17
0	 0	 -8.959608e-17
0	 0	 -8.978472e-17
0	 0	 -9.131415e-17
0	 0	 -9.183945e-17
0	 0	 -9.276843e-17
0	 0	 -9.142535e-17
0	 0	 -8.900919e-17
0	 0	 -8.917963e-17
0	 0	 -8.945508e-17
0	 0	 -9.167733e-17
0	 0	 -9.250691e-17
0	 0	 -9.389273e-17
0	 0	 -9.177408e-17
0	 0	 -8.822125e-17
0	 0	 -8.835127e-17
0	 0	 -8.879905e-17
0	 0	 -9.203980e-17
0	 0	 -9.317287e-17
0	 0	 -9.501433e-17
0	 0	 -9.212232e-17
0	 0	 -8.743475e-17
0	 0	 -8.752502e-17
0	 0	 -8.814434e-17
0	 0	 -9.222147e-17
0	 0	 -9.350672e-17
0	 0	 -9.557579e-17
0	 0	 -9.229588e-17
0	 0	 -8.704206e-17
0	 0	 -8.711087e-17
0	 0	 -8.781618e-17
-6.579106e-18	 4.636932e-18	 -9.104327e-17
-1.125526e-17	 4.415342e-18	 -9.134099e-17
-1.926030e-17	 5.894765e-18	 -9.193040e-17
-3.722307e-18	 5.127103e-18	 -9.116823e-17
2.951974e-18	 -1.438168e-17	 -8.959273e-17
2.131659e-18	 -1.449912e-17	 -8.979879e-17
2.567103e-18	 -1.188377e-17	 -8.994437e-17
-6.582686e-18	 4.362444e-18	 -9.126418e-17
-1.130408e-17	 4.196140e-18	 -9.174714e-17
-1.934016e-17	 6.108576e-18	 -9.261359e-17
-3.373704e-18	 5.553411e-18	 -9.137919e-17
3.344707e-18	 -1.433888e-17	 -8.911525e-17
2.113018e-18	 -1.452946e-17	 -8.929472e-17
2.415141e-18	 -1.189024e-17	 -8.954533e-17
-6.580646e-18	 3.816725e-18	 -9.169470e-17
-1.138289e-17	 3.768524e-18	 -9.253824e-17
-1.947780e-17	 6.505229e-18	 -9.394641e-17
-2.683516e-18	 6.396975e-18	 -9.179288e-17
4.107160e-18	 -1.424814e-17	 -8.818082e-17
2.074370e-18	 -1.456829e-17	 -8.831290e-17
2.113020e-18	 -1.188655e-17	 -8.876769e-17
-6.561707e-18	 3.272465e-18	 -9.212452e-17
-1.143166e-17	 3.339034e-18	 -9.332785e-17
-1.956892e-17	 6.882053e-18	 -9.527655e-17
-2.004996e-18	 7.211079e-18	 -9.220616e-17
4.850663e-18	 -1.413085e-17	 -8.724772e-17
2.030745e-18	 -1.457155e-17	 -8.733319e-17
1.811706e-18	 -1.185234e-17	 -8.799131e-17
-6.548149e-18	 2.999517e-18	 -9.234452e-17
-1.145053e-17	 3.118351e-18	 -9.373208e-17
-1.960087e-17	 7.075409e-18	 -9.595653e-17
-1.669792e-18	 7.607427e-18	 -9.241653e-17
5.224841e-18	 -1.406123e-17	 -8.677192e-17
2.006845e-18	 -1.456623e-17	 -8.683174e-17
1.660596e-18	 -1.182785e-17	 -8.759392e-17
-2.320244e-17	 1.649179e-17	 -9.083394e-17
-3.967418e-17	 1.567752e-17	 -9.098833e-17
-6.786361e-17	 2.072832e-17	 -9.121563e-17
-1.335695e-17	 1.781222e-17	 -9.081826e-17
1.022940e-17	 -5.073094e-17	 -9.026744e-17
7.535532e-18	 -5.112285e-17	 -9.023182e-17
9.130201e-18	 -4.191033e-17	 -9.032246e-17
-2.321489e-17	 1.552496e-17	 -9.074274e-17
-3.984576e-17	 1.490561e-17	 -9.082063e-17
-6.814496e-17	 2.148039e-17	 -9.093361e-17
-1.212866e-17	 1.931466e-17	 -9.073125e-17
1.161255e-17	 -5.058047e-17	 -9.046446e-17
7.469670e-18	 -5.122937e-17	 -9.043994e-17
8.594947e-18	 -4.193282e-17	 -9.048720e-17
-2.320854e-17	 1.360181e-17	 -9.057594e-17
-4.012486e-17	 1.339900e-17	 -9.051406e-17
-6.863381e-17	 2.287796e-17	 -9.041727e-17
-9.695019e-18	 2.229135e-17	 -9.057118e-17
1.430095e-17	 -5.026357e-17	 -9.082622e-17
7.333314e-18	 -5.136813e-17	 -9.082043e-17
7.530247e-18	 -4.192134e-17	 -9.078850e-17
-2.314522e-17	 1.168354e-17	 -9.040932e-17
-4.030284e-17	 1.188579e-17	 -9.020791e-17
-6.896688e-17	 2.420933e-17	 -8.990172e-17
-7.301064e-18	 2.516976e-17	 -9.041118e-17
1.692674e-17	 -4.985844e-17	 -9.118765e-17
7.179940e-18	 -5.138734e-17	 -9.120027e-17
6.468253e-18	 -4.180697e-17	 -9.108945e-17
-2.309970e-17	 1.072187e-17	 -9.031852e-17
-4.037328e-17	 1.110862e-17	 -9.004105e-17
-6.908713e-17	 2.489282e-17	 -8.962110e-17
-6.118564e-18	 2.657185e-17	 -9.032443e-17
1.824848e-17	 -4.961842e-17	 -9.138392e-17
7.096029e-18	 -5.137362e-17	 -9.140726e-17
5.935853e-18	 -4.172475e-17	 -9.125347e-17
-3.696275e-25	 3.372100e-26	 -8.902402e-17
-4.458927e-25	 3.058992e-26	 -8.774756e-17
-6.344162e-25	 6.773560e-26	 -8.541392e-17
-8.319552e-27	 -5.754409e-26	 -8.868586e-17
6.972551e-26	 -5.988249e-25	 -9.478632e-17
4.429996e-26	 -4.501904e-25	 -9.425277e-17
5.824138e-26	 -3.007193e-25	 -9.359171e-17
-3.694809e-25	 2.919845e-26	 -8.858209e-17
-4.466476e-25	 2.536463e-26	 -8.693509e-17
-6.370459e-25	 7.882541e-26	 -8.404726e-17
7.304030e-27	 -4.607341e-26	 -8.826386e-17
7.676210e-26	 -5.994367e-25	 -9.574148e-17
4.063659e-26	 -4.519808e-25	 -9.526113e-17
4.921841e-26	 -3.008835e-25	 -9.438995e-17
-3.689552e-25	 1.995057e-26	 -8.769148e-17
-4.485245e-25	 1.618889e-26	 -8.529858e-17
-6.385739e-25	 9.834348e-26	 -8.129000e-17
3.246934e-26	 -2.186338e-26	 -8.740790e-17
9.533323e-26	 -6.007622e-25	 -9.767475e-17
3.113903e-26	 -4.549992e-25	 -9.729217e-17
3.199317e-26	 -3.008421e-25	 -9.599867e-17
-3.686110e-25	 1.115711e-26	 -8.680261e-17
-4.486446e-25	 5.705409e-27	 -8.366570e-17
-6.419012e-25	 1.201373e-25	 -7.853922e-17
6.147990e-26	 -1.140614e-27	 -8.655309e-17
1.097707e-25	 -5.995332e-25	 -9.960459e-17
2.306026e-26	 -4.575373e-25	 -9.931814e-17
1.435522e-26	 -3.001305e-25	 -9.760422e-17
-3.683748e-25	 6.521646e-27	 -8.636253e-17
-4.487951e-25	 8.901387e-28	 -8.285711e-17
-6.424958e-25	 1.295984e-25	 -7.717904e-17
7.473315e-26	 1.099886e-26	 -8.613228e-17
1.178137e-25	 -5.998511e-25	 -1.005563e-16
1.873368e-26	 -4.582607e-25	 -1.003212e-16
5.435142e-27	 -2.996770e-25	 -9.839913e-17
2.320244e-17	 -1.649179e-17	 -9.083394e-17
3.967418e-17	 -1.567752e-17	 -9.098833e-17
6.786361e-17	 -2.072832e-17	 -9.121563e-17
1.335695e-17	 -1.781222e-17	 -9.081826e-17
-1.022940e-17	 5.073094e-17	 -9.026744e-17
-7.535532e-18	 5.112285e-17	 -9.023182e-17
-9.130201e-18	 4.191033e-17	 -9.032247e-17
2.321489e-17	 -1.552496e-17	 -9.074274e-17
3.984576e-17	 -1.490561e-17	 -9.082063e-17
6.814496e-17	 -2.148039e-17	 -9.093361e-17
1.212866e-17	 -1.931466e-17	 -9.073125e-17
-1.161255e-17	 5.058047e-17	 -9.046446e-17
-7.469670e-18	 5.122937e-17	 -9.043994e-17
-8.594947e-18	 4.193282e-17	 -9.048720e-17
2.320854e-17	 -1.360181e-17	 -9.057594e-17
4.012486e-17	 -1.339900e-17	 -9.051406e-17
6.863381e-17	 -2.287796e-17	 -9.041727e-17
9.695019e-18	 -2.229135e-17	 -9.057118e-17
-1.430095e-17	 5.026357e-17	 -9.082622e-17
-7.333314e-18	 5.136813e-17	 -9.082043e-17
-7.530247e-18	 4.192134e-17	 -9.078850e-17
2.314522e-17	 -1.168354e-17	 -9.040932e-17
4.030284e-17	 -1.188579e-17	 -9.020791e-17
6.896688e-17	 -2.420933e-17	 -8.990172e-17
7.301064e-18	 -2.516976e-17	 -9.041118e-17
-1.692674e-17	 4.985844e-17	 -9.118765e-17
-7.179940e-18	 5.138733e-17	 -9.120027e-17
-6.468253e-18	 4.180697e-17	 -9.108945e-17
2.309970e-17	 -1.072187e-17	 -9.031852e-17
4.037328e-17	 -1.110862e-17	 -9.004105e-17
6.908713e-17	 -2.489282e-17	 -8.962110e-17
6.118564e-18	 -2.657185e-17	 -9.032443e-17
-1.824848e-17	 4.961842e-17	 -9.138392e-17
-7.096029e-18	 5.137362e-17	 -9.140726e-17
-5.935853e-18	 4.172475e-17	 -9.125347e-17
6.579106e-18	 -4.636932e-18	 -9.104327e-17
1.125526e-17	 -4.415342e-18	 -9.134099e-17
1.926030e-17	 -5.894765e-18	 -9.193040e-17
3.722307e-18	 -5.127103e-18	 -9.116823e-17
-2.951974e-18	 1.438168e-17	 -8.959273e-17
-2.131659e-18	 1.449912e-17	 -8.979879e-17
-2.567103e-18	 1.188377e-17	 -8.994437e-17
6.582686e-18	 -4.362444e-18	 -9.126418e-17
1.130408e-17	 -4.196140e-18	 -9.174714e-17
1.934016e-17	 -6.108576e-18	 -9.261359e-17
3.373704e-18	 -5.553411e-18	 -9.137919e-17
-3.344707e-18	 1.433888e-17	 -8.911525e-17
-2.113018e-18	 1.452946e-17	 -8.929472e-17
-2.415141e-18	 1.189024e-17	 -8.954533e-17
6.580645e-18	 -3.816725e-18	 -9.169470e-17
1.138289e-17	 -3.768524e-18	 -9.253824e-17
1.947780e-17	 -6.505229e-18	 -9.394641e-17
2.683516e-18	 -6.396975e-18	 -9.179288e-17
-4.107160e-18	 1.424814e-17	 -8.818082e-17
-2.074370e-18	 1.456829e-17	 -8.831290e-17
-2.113020e-18	 1.188655e-17	 -8.876769e-17
6.561707e-18	 -3.272465e-18	 -9.212452e-17
1.143166e-17	 -3.339034e-18	 -9.332785e-17
1.956892e-17	 -6.882053e-18	 -9.527655e-17
2.004996e-18	 -7.211079e-18	 -9.220616e-17
-4.850663e-18	 1.413085e-17	 -8.724772e-17
-2.030745e-18	 1.457155e-17	 -8.733319e-17
-1.811706e-18	 1.185234e-17	 -8.799131e-17
6.548149e-18	 -2.999517e-18	 -9.234452e-17
1.145053e-17	 -3.118351e-18	 -9.373208e-17
1.960087e-17	 -7.075409e-18	 -9.595653e-17
1.669792e-18	 -7.607427e-18	 -9.241653e-17
-5.224841e-18	 1.406123e-17	 -8.677192e-17
-2.006845e-18	 1.456623e-17	 -8.683174e-17
-1.660596e-18	 1.182785e-17	 -8.759392e-17
0	 0	 -9.113165e-17
0	 0	 -9.150389e-17
0	 0	 -9.220412e-17
0	 0	 -9.125125e-17
0	 0	 -8.940342e-17
0	 0	 -8.959608e-17
0	 0	 -8.978472e-17
0	 0	 -9.131415e-17
0	 0	 -9.183945e-17
0	 0	 -9.276843e-17
0	 0	 -9.142535e-17
0	 0	 -8.900919e-17
0	 0	 -8.917963e-17
0	 0	 -8.945508e-17
0	 0	 -9.167733e-17
0	 0	 -9.250691e-17
0	 0	 -9.389273e-17
0	 0	 -9.177408e-17
0	 0	 -8.822125e-17
0	 0	 -8.835127e-17
0	 0	 -8.879905e-17
0	 0	 -9.203979e-17
0	 0	 -9.317287e-17
0	 0	 -9.501433e-17
0	 0	 -9.212232e-17
0	 0	 -8.743475e-17
0	 0	 -8.752502e-17
0	 0	 -8.814434e-17
0	 0	 -9.222147e-17
0	 0	 -9.350672e-17
0	 0	 -9.557579e-17
0	 0	 -9.229588e-17
0	 0	 -8.704206e-17
0	 0	 -8.711087e-17
0	 0	 -8.781618e-17
0	 0	 -8.978472e-17
0	 0	 -9.002367e-17
0	 0	 -9.077868e-17
0	 0	 -9.273847e-17
0	 0	 -9.158336e-17
0	 0	 -9.057181e-17
0	 0	 -9.017171e-17
0	 0	 -8.945508e-17
0	 0	 -8.977485e-17
0	 0	 -9.093698e-17
0	 0	 -9.334445e-17
0	 0	 -9.201707e-17
0	 0	 -9.053906e-17
0	 0	 -8.998922e-17
0	 0	 -8.879905e-17
0	 0	 -8.927997e-17
0	 0	 -9.124761e-17
0	 0	 -9.455817e-17
0	 0	 -9.287711e-17
0	 0	 -9.047395e-17
0	 0	 -8.962603e-17
0	 0	 -8.814434e-17
0	 0	 -8.878664e-17
0	 0	 -9.155664e-17
0	 0	 -9.577024e-17
0	 0	 -9.373437e-17
0	 0	 -9.040935e-17
0	 0	 -8.926357e-17
0	 0	 -8.781618e-17
0	 0	 -8.853946e-17
0	 0	 -9.171327e-17
0	 0	 -9.637432e-17
0	 0	 -9.416514e-17
0	 0	 -9.037708e-17
0	 0	 -8.908189e-17
2.567103e-18	 -1.188377e-17	 -8.994437e-17
3.033651e-18	 -9.344930e-18	 -9.014546e-17
3.850288e-18	 3.657086e-18	 -9.069830e-17
1.519837e-17	 1.560199e-17	 -9.244954e-17
1.332294e-17	 6.392091e-18	 -9.136995e-17
-1.945306e-18	 4.914704e-18	 -9.058856e-17
-6.579106e-18	 4.636932e-18	 -9.026010e-17
2.415141e-18	 -1.189024e-17	 -8.954533e-17
2.718793e-18	 -9.324151e-18	 -8.984429e-17
3.451785e-18	 3.865218e-18	 -9.088954e-17
1.522227e-17	 1.584854e-17	 -9.318378e-17
1.354172e-17	 6.167856e-18	 -9.189467e-17
-1.901783e-18	 4.531509e-18	 -9.054890e-17
-6.582686e-18	 4.362444e-18	 -9.003918e-17
2.113020e-18	 -1.188655e-17	 -8.876769e-17
2.108875e-18	 -9.271485e-18	 -8.925769e-17
2.648688e-18	 4.255929e-18	 -9.125714e-17
1.526885e-17	 1.633578e-17	 -9.462361e-17
1.394590e-17	 5.697788e-18	 -9.291369e-17
-1.815318e-18	 3.787627e-18	 -9.047170e-17
-6.580646e-18	 3.816725e-18	 -8.960866e-17
1.811706e-18	 -1.185234e-17	 -8.799131e-17
1.505338e-18	 -9.199746e-18	 -8.867271e-17
1.849632e-18	 4.622366e-18	 -9.162298e-17
1.529037e-17	 1.678616e-17	 -9.606204e-17
1.430482e-17	 5.220619e-18	 -9.392978e-17
-1.728629e-18	 3.048157e-18	 -9.039507e-17
-6.561707e-18	 3.272465e-18	 -8.917884e-17
1.660596e-18	 -1.182785e-17	 -8.759392e-17
1.198024e-18	 -9.159601e-18	 -8.837341e-17
1.453424e-18	 4.804543e-18	 -9.181226e-17
1.529169e-17	 1.699766e-17	 -9.679424e-17
1.447618e-17	 4.987473e-18	 -9.445113e-17
-1.684593e-18	 2.670570e-18	 -9.035598e-17
-6.548149e-18	 2.999517e-18	 -8.895884e-17
9.130201e-18	 -4.191033e-17	 -9.032246e-17
1.083436e-17	 -3.296723e-17	 -9.039819e-17
1.382343e-17	 1.277810e-17	 -9.082821e-17
5.360209e-17	 5.488215e-17	 -9.123145e-17
4.685212e-17	 2.271805e-17	 -9.110063e-17
-6.879868e-18	 1.750382e-17	 -9.061555e-17
-2.320244e-17	 1.649179e-17	 -9.046942e-17
8.594947e-18	 -4.193282e-17	 -9.048720e-17
9.726009e-18	 -3.289395e-17	 -9.052254e-17
1.241844e-17	 1.351077e-17	 -9.074910e-17
5.368688e-17	 5.575153e-17	 -9.092861e-17
4.762239e-17	 2.192655e-17	 -9.088389e-17
-6.726687e-18	 1.615477e-17	 -9.063192e-17
-2.321489e-17	 1.552496e-17	 -9.056062e-17
7.530247e-18	 -4.192134e-17	 -9.078850e-17
7.577445e-18	 -3.270975e-17	 -9.074985e-17
9.585107e-18	 1.488829e-17	 -9.060624e-17
5.385470e-17	 5.747381e-17	 -9.037148e-17
4.904931e-17	 2.026717e-17	 -9.048874e-17
-6.422427e-18	 1.353415e-17	 -9.066183e-17
-2.320854e-17	 1.360181e-17	 -9.072742e-17
6.468253e-18	 -4.180697e-17	 -9.108945e-17
5.450411e-18	 -3.246178e-17	 -9.097665e-17
6.764006e-18	 1.618329e-17	 -9.046401e-17
5.394036e-17	 5.907430e-17	 -8.981461e-17
5.032361e-17	 1.858302e-17	 -9.009454e-17
-6.117801e-18	 1.092828e-17	 -9.069152e-17
-2.314522e-17	 1.168354e-17	 -9.089404e-17
5.935853e-18	 -4.172475e-17	 -9.125347e-17
4.367675e-18	 -3.232347e-17	 -9.110019e-17
5.365243e-18	 1.682744e-17	 -9.038573e-17
5.395120e-17	 5.982774e-17	 -8.951269e-17
5.093335e-17	 1.776039e-17	 -8.987924e-17
-5.963200e-18	 9.598147e-18	 -9.070765e-17
-2.309970e-17	 1.072187e-17	 -9.098484e-17
5.824138e-26	 -3.007193e-25	 -9.359171e-17
6.541459e-26	 -1.466215e-25	 -9.279911e-17
1.260081e-25	 2.990448e-25	 -9.007839e-17
3.716924e-25	 4.645468e-25	 -8.380964e-17
1.355501e-25	 9.721725e-26	 -8.738556e-17
-3.741435e-25	 7.208417e-26	 -9.093006e-17
-4.031617e-25	 4.704126e-26	 -9.227934e-17
4.921841e-26	 -3.008835e-25	 -9.438995e-17
5.374124e-26	 -1.451480e-25	 -9.340158e-17
1.185071e-25	 3.055389e-25	 -8.969582e-17
3.763907e-25	 4.677216e-25	 -8.234086e-17
1.443217e-25	 8.558817e-26	 -8.633589e-17
-3.740725e-25	 6.048479e-26	 -9.100939e-17
-4.035647e-25	 4.498067e-26	 -9.272127e-17
3.199317e-26	 -3.008421e-25	 -9.599867e-17
3.015225e-26	 -1.424787e-25	 -9.461502e-17
1.033622e-25	 3.186795e-25	 -8.893571e-17
3.868790e-25	 4.732059e-25	 -7.936172e-17
1.595833e-25	 6.186877e-26	 -8.422812e-17
-3.729984e-25	 3.853833e-26	 -9.116908e-17
-4.039075e-25	 4.033523e-26	 -9.361188e-17
1.435522e-26	 -3.001305e-25	 -9.760422e-17
7.330022e-27	 -1.400148e-25	 -9.582473e-17
8.692541e-26	 3.311622e-25	 -8.817946e-17
3.976844e-25	 4.782679e-25	 -7.638655e-17
1.735138e-25	 3.778104e-26	 -8.212706e-17
-3.714120e-25	 1.682501e-26	 -9.132754e-17
-4.030399e-25	 3.578124e-26	 -9.450075e-17
5.435142e-27	 -2.996770e-25	 -9.839913e-17
-4.230240e-27	 -1.388923e-25	 -9.642344e-17
7.882931e-26	 3.377068e-25	 -8.780084e-17
4.029553e-25	 4.798486e-25	 -7.492191e-17
1.800801e-25	 2.664298e-26	 -8.108418e-17
-3.703167e-25	 5.210363e-27	 -9.140574e-17
-4.023637e-25	 3.385366e-26	 -9.494083e-17
-9.130201e-18	 4.191033e-17	 -9.032247e-17
-1.083436e-17	 3.296723e-17	 -9.039819e-17
-1.382343e-17	 -1.277810e-17	 -9.082821e-17
-5.360209e-17	 -5.488215e-17	 -9.123145e-17
-4.685212e-17	 -2.271805e-17	 -9.110063e-17
6.879867e-18	 -1.750382e-17	 -9.061555e-17
2.320244e-17	 -1.649179e-17	 -9.046942e-17
-8.594947e-18	 4.193282e-17	 -9.048720e-17
-9.726009e-18	 3.289395e-17	 -9.052254e-17
-1.241844e-17	 -1.351077e-17	 -9.074910e-17
-5.368688e-17	 -5.575153e-17	 -9.092861e-17
-4.762239e-17	 -2.192655e-17	 -9.088389e-17
6.726686e-18	 -1.615477e-17	 -9.063192e-17
2.321489e-17	 -1.552496e-17	 -9.056062e-17
-7.530247e-18	 4.192134e-17	 -9.078850e-17
-7.577445e-18	 3.270975e-17	 -9.074985e-17
-9.585107e-18	 -1.488829e-17	 -9.060624e-17
-5.385469e-17	 -5.747381e-17	 -9.037148e-17
-4.904931e-17	 -2.026717e-17	 -9.048874e-17
6.422427e-18	 -1.353415e-17	 -9.066183e-17