# vtk DataFile Version 3.0
Unstructured Grid Example
ASCII
DATASET UNSTRUCTURED_GRID
POINTS 1641 float
-9.500000e-01	 0	 0
-9.500000e-01	 0	 3.750000e-01
-9.500000e-01	 0	 1.125000e+00
-9.500000e-01	 0	 1.500000e+00
-9.500000e-01	 0	 1.875000e+00
-9.500000e-01	 0	 2.250000e+00
-9.500000e-01	 0	 2.625000e+00
-9.500000e-01	 0	 3
-9.500000e-01	 0	 7.500000e-01
-9.341401e-01	 -1.728649e-01	 1.500000e+00
-9.341401e-01	 -1.728649e-01	 0
-9.341401e-01	 -1.728649e-01	 3.000000e+00
-9.341401e-01	 1.728649e-01	 2.250000e+00
-9.341401e-01	 1.728649e-01	 0
-9.341401e-01	 1.728649e-01	 1.500000e+00
-9.341401e-01	 1.728649e-01	 3.000000e+00
-9.341401e-01	 -1.728649e-01	 7.500000e-01
-9.341401e-01	 -1.728649e-01	 2.250000e+00
-9.341401e-01	 1.728649e-01	 7.500000e-01
-8.832989e-01	 -3.496900e-01	 1.125000e+00
-8.832989e-01	 -3.496900e-01	 1.875000e+00
-8.832989e-01	 -3.496900e-01	 2.625000e+00
-8.832989e-01	 -3.496900e-01	 2.250000e+00
-8.832989e-01	 3.496900e-01	 1.125000e+00
-8.832989e-01	 -3.496900e-01	 0
-8.832989e-01	 -3.496900e-01	 3.000000e+00
-8.832989e-01	 -3.496900e-01	 3.750000e-01
-8.832989e-01	 -3.496900e-01	 7.500000e-01
-8.832989e-01	 3.496900e-01	 3.750000e-01
-8.832989e-01	 3.496900e-01	 7.500000e-01
-8.832989e-01	 3.496900e-01	 2.250000e+00
-8.832989e-01	 3.496900e-01	 2.625000e+00
-8.832989e-01	 3.496900e-01	 0
-8.832989e-01	 3.496900e-01	 1.875000e+00
-8.832989e-01	 3.496900e-01	 3.000000e+00
-8.832989e-01	 -3.496900e-01	 1.500000e+00
-8.832989e-01	 3.496900e-01	 1.500000e+00
-8.787500e-01	 0	 2.250000e+00
-8.787500e-01	 0	 0
-8.787500e-01	 0	 1.500000e+00
-8.787500e-01	 0	 3
-8.787500e-01	 0	 7.500000e-01
-8.149622e-01	 -3.223238e-01	 7.500000e-01
-8.149622e-01	 3.223238e-01	 7.500000e-01
-8.149622e-01	 -3.223238e-01	 2.250000e+00
-8.149622e-01	 3.223238e-01	 2.250000e+00
-8.149622e-01	 -3.223238e-01	 0
-8.149622e-01	 -3.223238e-01	 1.500000e+00
-8.149622e-01	 -3.223238e-01	 3
-8.149622e-01	 3.223238e-01	 1.500000e+00
-8.149622e-01	 3.223238e-01	 0
-8.149622e-01	 3.223238e-01	 3
-8.075000e-01	 0	 7.500000e-01
-8.075000e-01	 0	 2.250000e+00
-8.075000e-01	 0	 3.750000e-01
-8.075000e-01	 0	 1.875000e+00
-8.075000e-01	 0	 2.625000e+00
-8.075000e-01	 0	 0
-8.075000e-01	 0	 1.125000e+00
-8.075000e-01	 0	 1.500000e+00
-8.075000e-01	 0	 3
-7.951457e-01	 -5.198493e-01	 7.500000e-01
-7.951457e-01	 5.198493e-01	 7.500000e-01
-7.951457e-01	 -5.198493e-01	 0
-7.951457e-01	 -5.198493e-01	 1.500000e+00
-7.951457e-01	 -5.198493e-01	 2.250000e+00
-7.951457e-01	 -5.198493e-01	 3
-7.951457e-01	 5.198493e-01	 0
-7.951457e-01	 5.198493e-01	 1.500000e+00
-7.951457e-01	 5.198493e-01	 2.250000e+00
-7.951457e-01	 5.198493e-01	 3
-7.894916e-01	 -1.451644e-01	 7.500000e-01
-7.894916e-01	 1.451644e-01	 7.500000e-01
-7.894916e-01	 1.451644e-01	 0
-7.894916e-01	 1.451644e-01	 3
-7.894916e-01	 -1.451644e-01	 0
-7.894916e-01	 -1.451644e-01	 1.500000e+00
-7.894916e-01	 -1.451644e-01	 2.250000e+00
-7.894916e-01	 -1.451644e-01	 3
-7.894916e-01	 1.451644e-01	 1.500000e+00
-7.894916e-01	 1.451644e-01	 2.250000e+00
-7.430021e-01	 -2.929055e-01	 1.500000e+00
-7.430021e-01	 2.929055e-01	 1.500000e+00
-7.430021e-01	 -2.929055e-01	 2.250000e+00
-7.430021e-01	 -2.929055e-01	 0
-7.430021e-01	 -2.929055e-01	 3.000000e+00
-7.430021e-01	 2.929055e-01	 3.750000e-01
-7.430021e-01	 -2.929055e-01	 3.750000e-01
-7.430021e-01	 -2.929055e-01	 1.125000e+00
-7.430021e-01	 -2.929055e-01	 1.875000e+00
-7.430021e-01	 -2.929055e-01	 2.625000e+00
-7.430021e-01	 2.929055e-01	 1.125000e+00
-7.430021e-01	 2.929055e-01	 0
-7.430021e-01	 2.929055e-01	 1.875000e+00
-7.430021e-01	 2.929055e-01	 2.250000e+00
-7.430021e-01	 2.929055e-01	 2.625000e+00
-7.430021e-01	 2.929055e-01	 3.000000e+00
-7.430021e-01	 2.929055e-01	 7.500000e-01
-7.430021e-01	 -2.929055e-01	 7.500000e-01
-7.362500e-01	 0	 0
-7.362500e-01	 0	 7.500000e-01
-7.362500e-01	 0	 1.500000e+00
-7.362500e-01	 0	 2.250000e+00
-7.362500e-01	 0	 3
-6.717514e-01	 -6.717514e-01	 2.625000e+00
-6.717514e-01	 6.717514e-01	 2.625000e+00
-6.717514e-01	 -6.717514e-01	 0
-6.717514e-01	 -6.717514e-01	 3.750000e-01
-6.717514e-01	 -6.717514e-01	 7.500000e-01
-6.717514e-01	 -6.717514e-01	 1.125000e+00
-6.717514e-01	 -6.717514e-01	 1.875000e+00
-6.717514e-01	 -6.717514e-01	 3.000000e+00
-6.717514e-01	 -6.717514e-01	 2.250000e+00
-6.717514e-01	 6.717514e-01	 1.500000e+00
-6.717514e-01	 6.717514e-01	 0
-6.717514e-01	 6.717514e-01	 3.750000e-01
-6.717514e-01	 6.717514e-01	 7.500000e-01
-6.717514e-01	 6.717514e-01	 1.125000e+00
-6.717514e-01	 6.717514e-01	 1.875000e+00
-6.717514e-01	 6.717514e-01	 3.000000e+00
-6.717514e-01	 -6.717514e-01	 1.500000e+00
-6.717514e-01	 6.717514e-01	 2.250000e+00
-6.682985e-01	 -2.618048e-01	 0
-6.682985e-01	 -2.618048e-01	 1.500000e+00
-6.682985e-01	 -2.618048e-01	 3
-6.682985e-01	 -2.618048e-01	 7.500000e-01
-6.682985e-01	 -2.618048e-01	 2.250000e+00
-6.682985e-01	 2.618048e-01	 7.500000e-01
-6.682985e-01	 2.618048e-01	 2.250000e+00
-6.682985e-01	 2.618048e-01	 0
-6.682985e-01	 2.618048e-01	 1.500000e+00
-6.682985e-01	 2.618048e-01	 3
-6.665713e-01	 -4.348738e-01	 2.250000e+00
-6.665713e-01	 -4.348738e-01	 7.500000e-01
-6.665713e-01	 4.348738e-01	 7.500000e-01
-6.665713e-01	 4.348738e-01	 2.250000e+00
-6.665713e-01	 -4.348738e-01	 0
-6.665713e-01	 -4.348738e-01	 3
-6.665713e-01	 4.348738e-01	 0
-6.665713e-01	 4.348738e-01	 1.500000e+00
-6.665713e-01	 4.348738e-01	 3
-6.665713e-01	 -4.348738e-01	 1.500000e+00
-6.650000e-01	 0	 7.500000e-01
-6.650000e-01	 0	 0
-6.650000e-01	 0	 3.750000e-01
-6.650000e-01	 0	 1.125000e+00
-6.650000e-01	 0	 1.500000e+00
-6.650000e-01	 0	 1.875000e+00
-6.650000e-01	 0	 2.625000e+00
-6.650000e-01	 0	 3
-6.650000e-01	 0	 2.250000e+00
-6.383743e-01	 -1.144482e-01	 0
-6.383743e-01	 -1.144482e-01	 3.000000e+00
-6.383743e-01	 -1.144482e-01	 7.500000e-01
-6.383743e-01	 -1.144482e-01	 1.500000e+00
-6.383743e-01	 -1.144482e-01	 2.250000e+00
-6.383743e-01	 1.144482e-01	 7.500000e-01
-6.383743e-01	 1.144482e-01	 1.500000e+00
-6.383743e-01	 1.144482e-01	 0
-6.383743e-01	 1.144482e-01	 2.250000e+00
-6.383743e-01	 1.144482e-01	 3.000000e+00
-6.189903e-01	 -6.189903e-01	 0
-6.189903e-01	 -6.189903e-01	 1.500000e+00
-6.189903e-01	 -6.189903e-01	 3.000000e+00
-6.189903e-01	 6.189903e-01	 2.250000e+00
-6.189903e-01	 6.189903e-01	 0
-6.189903e-01	 6.189903e-01	 1.500000e+00
-6.189903e-01	 6.189903e-01	 3.000000e+00
-6.189903e-01	 -6.189903e-01	 2.250000e+00
-6.189903e-01	 -6.189903e-01	 7.500000e-01
-6.189903e-01	 6.189903e-01	 7.500000e-01
-5.937500e-01	 0	 0
-5.937500e-01	 0	 7.500000e-01
-5.937500e-01	 0	 1.500000e+00
-5.937500e-01	 0	 2.250000e+00
-5.937500e-01	 0	 3
-5.917666e-01	 2.294176e-01	 1.875000e+00
-5.917666e-01	 2.294176e-01	 2.250000e+00
-5.917666e-01	 -2.294176e-01	 2.250000e+00
-5.917666e-01	 -2.294176e-01	 0
-5.917666e-01	 -2.294176e-01	 2.625000e+00
-5.917666e-01	 -2.294176e-01	 3
-5.917666e-01	 -2.294176e-01	 1.500000e+00
-5.917666e-01	 -2.294176e-01	 1.875000e+00
-5.917666e-01	 2.294176e-01	 0
-5.917666e-01	 2.294176e-01	 2.625000e+00
-5.917666e-01	 2.294176e-01	 3
-5.917666e-01	 2.294176e-01	 1.500000e+00
-5.917666e-01	 -2.294176e-01	 3.750000e-01
-5.917666e-01	 -2.294176e-01	 7.500000e-01
-5.917666e-01	 -2.294176e-01	 1.125000e+00
-5.917666e-01	 2.294176e-01	 7.500000e-01
-5.917666e-01	 2.294176e-01	 1.125000e+00
-5.917666e-01	 2.294176e-01	 3.750000e-01
-5.620800e-01	 5.620800e-01	 1.125000e+00
-5.620800e-01	 -5.620800e-01	 1.125000e+00
-5.620800e-01	 -5.620800e-01	 3.750000e-01
-5.620800e-01	 -5.620800e-01	 7.500000e-01
-5.620800e-01	 -5.620800e-01	 1.875000e+00
-5.620800e-01	 -5.620800e-01	 2.625000e+00
-5.620800e-01	 5.620800e-01	 3.750000e-01
-5.620800e-01	 5.620800e-01	 7.500000e-01
-5.620800e-01	 5.620800e-01	 1.875000e+00
-5.620800e-01	 -5.620800e-01	 0
-5.620800e-01	 -5.620800e-01	 1.500000e+00
-5.620800e-01	 -5.620800e-01	 2.250000e+00
-5.620800e-01	 -5.620800e-01	 3
-5.620800e-01	 5.620800e-01	 0
-5.620800e-01	 5.620800e-01	 1.500000e+00
-5.620800e-01	 5.620800e-01	 2.250000e+00
-5.620800e-01	 5.620800e-01	 3
-5.620800e-01	 5.620800e-01	 2.625000e+00
-5.250231e-01	 -3.396892e-01	 7.500000e-01
-5.250231e-01	 3.396892e-01	 1.500000e+00
-5.250231e-01	 3.396892e-01	 2.250000e+00
-5.250231e-01	 3.396892e-01	 7.500000e-01
-5.250231e-01	 -3.396892e-01	 2.250000e+00
-5.250231e-01	 -3.396892e-01	 0
-5.250231e-01	 -3.396892e-01	 1.500000e+00
-5.250231e-01	 -3.396892e-01	 3.000000e+00
-5.250231e-01	 3.396892e-01	 0
-5.250231e-01	 3.396892e-01	 3.000000e+00
-5.225000e-01	 0	 1.500000e+00
-5.225000e-01	 0	 2.250000e+00
-5.225000e-01	 0	 0
-5.225000e-01	 0	 3.750000e-01
-5.225000e-01	 0	 7.500000e-01
-5.225000e-01	 0	 1.125000e+00
-5.225000e-01	 0	 1.875000e+00
-5.225000e-01	 0	 2.625000e+00
-5.225000e-01	 0	 3
-5.198493e-01	 7.951457e-01	 7.500000e-01
-5.198493e-01	 -7.951457e-01	 7.500000e-01
-5.198493e-01	 -7.951457e-01	 0
-5.198493e-01	 -7.951457e-01	 1.500000e+00
-5.198493e-01	 -7.951457e-01	 2.250000e+00
-5.198493e-01	 -7.951457e-01	 3
-5.198493e-01	 7.951457e-01	 0
-5.198493e-01	 7.951457e-01	 1.500000e+00
-5.198493e-01	 7.951457e-01	 2.250000e+00
-5.198493e-01	 7.951457e-01	 3
-5.143216e-01	 -1.961513e-01	 2.250000e+00
-5.143216e-01	 1.961513e-01	 7.500000e-01
-5.143216e-01	 1.961513e-01	 1.500000e+00
-5.143216e-01	 -1.961513e-01	 7.500000e-01
-5.143216e-01	 -1.961513e-01	 0
-5.143216e-01	 -1.961513e-01	 3.000000e+00
-5.143216e-01	 -1.961513e-01	 1.500000e+00
-5.143216e-01	 1.961513e-01	 2.250000e+00
-5.143216e-01	 1.961513e-01	 0
-5.143216e-01	 1.961513e-01	 3.000000e+00
-5.020120e-01	 -5.020120e-01	 7.500000e-01
-5.020120e-01	 -5.020120e-01	 1.500000e+00
-5.020120e-01	 5.020120e-01	 7.500000e-01
-5.020120e-01	 5.020120e-01	 1.500000e+00
-5.020120e-01	 -5.020120e-01	 0
-5.020120e-01	 -5.020120e-01	 2.250000e+00
-5.020120e-01	 -5.020120e-01	 3.000000e+00
-5.020120e-01	 5.020120e-01	 0
-5.020120e-01	 5.020120e-01	 2.250000e+00
-5.020120e-01	 5.020120e-01	 3.000000e+00
-4.847636e-01	 8.158725e-02	 7.500000e-01
-4.847636e-01	 -8.158725e-02	 7.500000e-01
[...]
POINT_DATA 1641
SCALARS pres_adim float 1
LOOKUP_TABLE default
-2.472618e+02
-2.287042e+02
-9.473246e+01
3.946760e-08
9.473246e+01
1.748406e+02
2.287042e+02
2.472618e+02
-1.748406e+02
7.316371e-09
-2.840972e+02
2.840972e+02
1.433152e+02
-2.026785e+02
7.893182e-08
2.026785e+02
-2.008872e+02
2.008872e+02
-1.433152e+02
-1.196766e+02
1.196766e+02
2.889247e+02
2.208824e+02
-5.645474e+01
-3.123746e+02
3.123746e+02
-2.889247e+02
-2.208824e+02
-1.362941e+02
-1.041450e+02
1.041450e+02
1.362941e+02
-1.472836e+02
5.645474e+01
1.472836e+02
3.136800e-08
4.291956e-08
1.737365e+02
-2.457004e+02
3.546616e-08
2.457004e+02
-1.737365e+02
-2.193741e+02
-1.035307e+02
2.193741e+02
1.035307e+02
-3.102417e+02
2.055864e-08
3.102417e+02
4.870872e-08
-1.464147e+02
1.464147e+02
-1.701104e+02
1.701104e+02
-2.225289e+02
9.217452e+01
2.225289e+02
-2.405724e+02
-9.217452e+01
9.235019e-09
2.405724e+02
-2.332984e+02
-5.971852e+01
-3.299338e+02
1.185215e-07
2.332984e+02
3.299338e+02
-8.445495e+01
-7.893696e-08
5.971852e+01
8.445495e+01
-1.949788e+02
-1.393512e+02
-1.970725e+02
1.970725e+02
-2.757414e+02
-4.575028e-08
1.949788e+02
2.757414e+02
6.886942e-08
1.393512e+02
-3.660905e-08
7.385841e-08
2.140116e+02
-3.026580e+02
3.026580e+02
-1.325981e+02
-2.799638e+02
-1.159649e+02
1.159649e+02
2.799638e+02
-5.492384e+01
-1.432877e+02
5.492384e+01
1.013195e+02
1.325981e+02
1.432877e+02
-1.013195e+02
-2.140116e+02
-2.323869e+02
-1.643224e+02
-2.254513e-08
1.643224e+02
2.323869e+02
3.082597e+02
1.512640e+01
-3.332127e+02
-3.082597e+02
-2.356168e+02
-1.276852e+02
1.276852e+02
3.332127e+02
2.356168e+02
-1.789492e-07
-1.635083e+01
-1.512640e+01
-1.156182e+01
-6.265590e+00
6.265590e+00
1.635083e+01
1.440764e-07
1.156182e+01
-2.898388e+02
-1.083728e-07
2.898388e+02
-2.049471e+02
2.049471e+02
-9.753449e+01
9.753449e+01
-1.379348e+02
1.042378e-07
1.379348e+02
2.259001e+02
-2.259001e+02
-5.802852e+01
5.802852e+01
-3.194710e+02
3.194710e+02
-8.206490e+01
-3.322059e-11
8.206490e+01
4.264788e-08
-1.560967e+02
-2.207540e+02
-2.041931e+02
-8.457958e+01
-5.334444e-08
8.457958e+01
2.041931e+02
2.207540e+02
1.560967e+02
-2.492501e+02
2.492501e+02
-1.762465e+02
-1.526651e-07
1.762465e+02
-1.270500e+02
4.323479e-08
-1.796759e+02
1.270500e+02
1.796759e+02
-3.309231e+02
1.362018e-07
3.309231e+02
1.148238e+01
-1.623848e+01
-1.653609e-07
1.623848e+01
2.339979e+02
-2.339979e+02
-1.148238e+01
-2.063047e+02
-1.458795e+02
-8.420461e-08
1.458795e+02
2.063047e+02
4.979457e+01
9.186687e+01
1.914689e+02
-2.707778e+02
2.504750e+02
2.707778e+02
-1.747955e-07
1.037502e+02
-1.299195e+02
1.202149e+02
1.299195e+02
1.291539e-07
-2.504750e+02
-1.914689e+02
-1.037502e+02
-9.186687e+01
-4.979457e+01
-1.202149e+02
-6.065434e+00
-1.236064e+02
-2.984125e+02
-2.280667e+02
1.236064e+02
2.984125e+02
-1.464319e+01
-1.119133e+01
6.065434e+00
-3.225352e+02
9.855789e-08
2.280667e+02
3.225352e+02
-1.582689e+01
-8.604915e-08
1.119133e+01
1.582689e+01
1.464319e+01
-2.008334e+02
1.570218e-07
5.237399e+01
-5.237399e+01
2.008334e+02
-2.840213e+02
-1.187010e-07
2.840213e+02
-7.406810e+01
7.406810e+01
-9.492539e-08
1.334587e+02
-1.887391e+02
-1.745366e+02
-1.334587e+02
-7.229543e+01
7.229543e+01
1.745366e+02
1.887391e+02
3.705546e+01
-2.285496e+02
-3.232181e+02
5.468805e-08
2.285495e+02
3.232181e+02
5.240460e+01
-1.836558e-07
-3.705546e+01
-5.240460e+01
1.742901e+02
-8.474553e+01
1.381755e-07
-1.742901e+02
-2.464834e+02
2.464834e+02
-2.230728e-07
8.474553e+01
-1.198484e+02
1.198484e+02
-2.178265e+02
4.906732e-08
-1.068884e+01
1.263778e-08
-3.080533e+02
2.178265e+02
3.080533e+02
-1.511627e+01
1.068884e+01
1.511627e+01
-1.066774e+02
-1.450133e+02
-2.050797e+02
-1.892877e-07
2.050797e+02
1.450133e+02
-1.508646e+02
1.145818e-08
1.066774e+02
1.508646e+02
-9.751978e-08
1.193298e+02
-1.687579e+02
-1.193298e+02
1.687579e+02
-1.096495e+02
-5.380554e+00
-2.861243e+02
2.647175e+02
2.861243e+02
-2.647175e+02
-2.666253e-09
5.380554e+00
-1.404022e+01
1.298978e+01
1.404022e+01
1.096495e+02
2.023204e+02
9.927946e+00
-1.298978e+01
1.048598e-07
-9.927946e+00
-2.023204e+02
-8.304403e+01
-2.137095e-07
-9.940886e+01
9.940886e+01
1.171160e-07
-4.117648e+01
1.532898e+02
2.004860e+02
-2.004860e+02
-1.532898e+02
-1.074807e+02
-7.600030e+01
7.600030e+01
1.074807e+02
4.117648e+01
8.304403e+01
-2.167844e+02
2.167844e+02
-3.608514e+01
2.212818e+02
5.103231e+01
-5.103231e+01
-2.212818e+02
-3.129398e+02
6.680209e-08
3.129398e+02
-1.122537e-07
3.608514e+01
-1.462004e+02
-1.350869e+02
-1.033793e+02
-5.595485e+01
-8.415898e-08
5.595485e+01
1.033793e+02
1.350869e+02
1.462004e+02
-1.580631e+02
1.580631e+02
-2.235350e+02
2.235350e+02
-1.756435e-07
-6.045829e+01
1.845325e-07
4.275044e+01
6.045829e+01
-4.275044e+01
1.825321e+02
-2.581394e+02
-1.825321e+02
-4.509945e-08
2.581394e+02
-1.266699e+01
-8.956924e+00
1.717793e-07
1.266699e+01
8.956924e+00
1.295883e+02
-1.832655e+02
1.832655e+02
-9.365439e+01
9.365439e+01
6.622364e+01
-1.295883e+02
-6.622364e+01
8.286343e-08
-1.793698e-07
-1.147004e+02
-2.993932e+02
1.147004e+02
2.993932e+02
-1.064061e-07
1.172639e+02
-1.172639e+02
4.495382e+01
-4.495382e+01
-1.085283e+02
-2.769111e+02
-2.117030e+02
2.117030e+02
2.769111e+02
-5.512071e-08
1.085283e+02
-8.291794e+01
8.291795e+01
-1.966504e+02
8.415894e-08
1.966504e+02
-3.286930e+01
3.286930e+01
-2.781058e+02
2.781058e+02
4.648432e+01
3.923621e-08
-4.648433e+01
-1.037339e+02
-1.188780e-07
-1.467019e+02
1.037339e+02
1.467019e+02
-1.131010e+02
-1.385745e-08
7.997451e+01
1.131010e+02
-7.997451e+01
-2.102479e+02
2.102479e+02
8.244899e+01
-8.244899e+01
-2.973354e+02
2.973354e+02
1.166007e+02
-5.287988e-08
-1.166007e+02
-9.567198e-08
-1.583355e+02
-7.769588e+00
-4.209566e+00
-8.578623e+01
-2.239202e+02
-2.071063e+02
-6.027980e-08
8.578623e+01
2.071063e+02
2.239202e+02
-1.098785e+01
-1.016279e+01
1.645179e-07
4.209567e+00
1.016279e+01
1.098785e+01
1.583355e+02
7.769588e+00
-3.788385e-08
-2.682706e+02
1.056961e+02
-8.075472e+01
-4.282750e-08
-2.900227e+02
1.111213e+02
2.050770e+02
2.682706e+02
2.900227e+02
4.378067e+01
-4.378067e+01
1.142046e+02
-1.142046e+02
-1.111213e+02
-2.050770e+02
8.075472e+01
-1.056961e+02
-1.353997e+02
-1.464825e+02
-5.608439e+01
-1.188164e-07
5.608439e+01
1.035788e+02
1.353997e+02
1.464825e+02
-7.849169e+01
-5.550200e+01
5.550200e+01
7.255643e+01
7.849169e+01
-3.005385e+01
4.137001e-08
-1.035788e+02
-7.255643e+01
3.005385e+01
-2.776683e+02
3.128548e-08
2.776683e+02
1.100870e+02
-3.276824e-08
-1.100870e+02
-1.963411e+02
1.963411e+02
7.784316e+01
-7.784316e+01
-1.856376e+02
-1.312656e+02
-6.010446e-08
1.856376e+02
-9.109313e+00
-6.441257e+00
1.291143e-07
9.109313e+00
1.312656e+02
6.441257e+00
-1.546204e+02
2.740694e+01
-2.740694e+01
-2.186663e+02
6.048224e-08
1.546204e+02
2.186663e+02
3.875929e+01
-3.875929e+01
9.887349e-08
-2.477415e-09
-6.815346e-08
-9.429174e-08
-1.124550e+02
1.124550e+02
7.618405e-08
-1.456879e+02
1.030169e+02
1.456879e+02
-1.030169e+02
7.951771e+01
-7.951771e+01
-7.792273e+01
-5.509969e+01
7.792273e+01
5.509969e+01
-3.044110e+01
-4.305022e+01
3.044110e+01
4.305022e+01
-7.347412e+01
1.833555e+02
9.602920e-08
-2.398577e+02
9.615404e+01
-2.593038e+02
2.398577e+02
2.593038e+02
7.347412e+01
1.039082e+02
-9.615404e+01
-1.039082e+02
9.935231e+01
-1.833555e+02
-9.935231e+01
3.982827e+01
-2.317502e-08
-3.982827e+01
6.800840e+01
1.428975e-07
-2.358828e+02
2.358828e+02
9.617844e+01
-9.617844e+01
-1.667944e+02
1.667944e+02
-1.653109e-08
-6.800840e+01
-1.019608e+02
-5.003260e+00
-1.332837e+02
-2.436991e-08
-5.442145e+01
-6.540286e+00
-1.441944e+02
-5.520792e+01
-4.260501e-08
5.520792e+01
1.019608e+02
1.332837e+02
1.441944e+02
7.112777e+01
-7.112777e+01
-7.696355e+01
2.946209e+01
7.696355e+01
5.442145e+01
-7.075679e+00
-2.709075e+00
7.351328e-08
2.709075e+00
5.003260e+00
6.540286e+00
7.075678e+00
-2.946209e+01
1.199688e-07
-2.655296e+02
-2.256428e-07
2.655296e+02
1.757080e+02
-1.757080e+02
1.877579e+02
-1.877579e+02
1.242443e+02
-1.242443e+02
-7.939405e+01
3.320559e+01
1.359843e-07
7.939405e+01
-3.320559e+01
-6.128690e+01
-1.405814e-08
1.916742e+02
-2.072573e+02
-1.465530e+02
1.465530e+02
2.072573e+02
8.667280e+01
-8.667280e+01
-8.016540e+01
-1.916742e+02
8.016540e+01
6.128690e+01
-1.822109e+02
-2.576849e+02
2.576849e+02
1.208424e+02
-1.280617e-07
1.822109e+02
1.708970e+02
6.660070e-08
-1.208424e+02
-1.708970e+02
-7.765766e+01
-3.810692e+00
3.661966e-08
1.509928e-08
-1.421560e+02
1.005195e+02
1.421560e+02
7.765765e+01
-1.098245e+02
-2.680394e-08
1.098245e+02
-7.564648e+01
-2.725874e-08
5.349014e+01
7.564648e+01
-5.349014e+01
-2.867316e+01
-4.054997e+01
4.054997e+01
2.867316e+01
-5.389134e+00
3.810692e+00
5.389134e+00
2.892560e+01
-2.045349e+01
-2.892560e+01
4.770783e-08
-1.005195e+02
8.293204e-09
2.045349e+01
1.236990e+02
1.116154e-07
-1.749367e+02
1.749367e+02
-1.236990e+02
-1.233432e-08
5.379474e+01
7.607726e+01
-7.607726e+01
-5.379474e+01
-2.327772e+02
1.645984e+02
2.327772e+02
1.560226e+02
-1.560226e+02
-5.003063e-08
-1.103247e+02
1.103247e+02
-1.645984e+02
7.008877e-08
1.619058e-08
-5.339850e+01
6.688237e-08
-6.837651e+01
6.837651e+01
5.231346e+01
-3.355263e+00
5.958638e+01
-1.394678e+02
-9.861861e+01
9.861861e+01
1.289154e+02
1.394678e+02
5.339850e+01
-7.398241e+01
7.398241e+01
-5.231346e+01
-2.832248e+01
-1.187196e-08
-3.630347e+00
-2.567043e+00
1.389795e+00
2.567043e+00
3.355263e+00
3.630347e+00
4.558009e+01
6.445999e+01
2.468149e+01
-9.142102e-09
-2.468149e+01
-4.558009e+01
-5.958638e+01
-6.445999e+01
-1.289154e+02
2.832248e+01
-1.389795e+00
-1.352186e+02
9.292630e+01
-1.912280e+02
1.656887e-07
1.352186e+02
1.912280e+02
1.314176e+02
-1.117468e-07
-1.314176e+02
-9.292630e+01
-9.636696e+01
7.448100e+01
-1.292196e+00
4.754291e+01
-7.587631e-08
-1.362835e+02
1.052808e-07
9.636696e+01
1.362835e+02
4.529713e-08
-1.053320e+02
1.053320e+02
-7.448100e+01
5.092756e+01
-3.724122e+01
-2.633352e+01
3.724122e+01
1.918896e-09
2.633352e+01
-1.827442e+00
8.734006e-09
1.292196e+00
1.827442e+00
3.330379e+01
-3.330379e+01
9.272966e-09
-2.354934e+01
-4.754291e+01
6.723583e+01
-6.723583e+01
-2.367890e-08
9.921483e+01
-7.015548e+01
-9.921483e+01
7.015548e+01
-7.202245e+01
9.436857e-09
7.202245e+01
-5.092756e+01
2.354934e+01
-6.447375e+01
6.447375e+01
2.670590e+01
-2.670590e+01
-4.933031e+01
4.933031e+01
-2.241303e+02
-2.073089e+02
-8.587024e+01
-2.040655e-07
8.587024e+01
1.584842e+02
2.073089e+02
2.241303e+02
-1.584842e+02
1.574834e+02
-2.227150e+02
-1.919320e-07
2.227150e+02
-1.574834e+02
-1.541966e+02
1.541966e+02
-2.017112e+02
8.355160e+01
2.017112e+02
-2.180667e+02
-8.355160e+01
-1.281586e-07
2.180667e+02
-2.106470e+02
-1.489500e+02
-5.316404e-08
1.489500e+02
2.106470e+02
-1.414938e+02
-2.001024e+02
-1.850908e+02
-7.666715e+01
2.550372e-08
7.666715e+01
1.850908e+02
2.001024e+02
1.414938e+02
-1.870049e+02
-1.322325e+02
9.688174e-08
1.322325e+02
1.870049e+02
1.243371e-07
1.209736e+02
-1.710825e+02
-1.582086e+02
-1.209736e+02
-6.553218e+01
6.553218e+01
1.582086e+02
1.710825e+02
1.357248e-07
1.081665e+02
-1.529705e+02
-1.081665e+02
1.529705e+02
-1.325233e+02
-1.224495e+02
-9.370816e+01
-5.072026e+01
1.115415e-07
5.072026e+01
9.370816e+01
1.224495e+02
1.325233e+02
2.582585e-08
3.988226e-08
8.345354e-10
6.860183e-10
1.135879e-08
-2.701533e-08
-2.872778e-08
-1.297731e-08
-6.492819e-09
6.976359e+01
-4.933031e+01
-6.976359e+01
4.933031e+01
-1.790544e-08
1.325233e+02
1.224495e+02
9.370816e+01
5.072026e+01
-1.379670e-07
-5.072026e+01
-9.370816e+01
-1.224495e+02
-1.325233e+02
1.529705e+02
1.081665e+02
-1.529705e+02
-1.081665e+02
-1.680783e-07
1.710825e+02
1.582086e+02
1.209736e+02
6.553218e+01
-6.553218e+01
-1.582086e+02
-1.710825e+02
-1.577371e-07
-1.209736e+02
1.870049e+02
1.322325e+02
-1.230969e-07
-1.322325e+02
-1.870049e+02
-1.414938e+02
2.001024e+02
1.850908e+02
7.666715e+01
-4.013333e-08
-7.666715e+01
-1.850908e+02
-2.001024e+02
1.414938e+02
2.106470e+02
1.489500e+02
5.130193e-08
-1.489500e+02
-2.106470e+02
2.180667e+02
8.355160e+01
1.394351e-07
-2.180667e+02
2.017112e+02
-8.355160e+01
-2.017112e+02
1.541966e+02
-1.541966e+02
1.574834e+02
2.227150e+02
2.116205e-07
-2.227150e+02
-1.574834e+02
1.584842e+02
2.241303e+02
2.073089e+02
8.587024e+01
2.274014e-07
-8.587024e+01
-1.584842e+02
-2.073089e+02
-2.241303e+02
-6.447375e+01
-6.976359e+01
6.976359e+01
2.237466e-08
6.447375e+01
2.670590e+01
-2.670590e+01
-2.354934e+01
1.304051e-08
7.202245e+01
5.092756e+01
2.891062e-11
-7.202245e+01
-3.330379e+01
4.794153e-09
3.330379e+01
1.832903e-08
-7.015548e+01
-9.921483e+01
5.986815e-08
7.015548e+01
9.921483e+01
-6.723583e+01
6.723583e+01
1.827442e+00
1.292196e+00
-1.292196e+00
-1.827442e+00
3.724122e+01
-2.633352e+01
-3.724122e+01
2.633352e+01
-5.092756e+01
7.448100e+01
-7.448100e+01
1.053320e+02
-1.053320e+02
1.362835e+02
-1.286147e-07
-9.636696e+01
-1.362835e+02
9.636696e+01
4.754291e+01
-4.754291e+01
2.354934e+01
-5.169902e-08
2.338855e-08
9.292630e+01
-1.314176e+02
8.413809e-08
1.314176e+02
1.912280e+02
-2.022977e-07
-1.352186e+02
-1.912280e+02
-9.292630e+01
1.352186e+02
-5.958638e+01
-1.389795e+00
-5.231346e+01
2.371657e-08
1.289154e+02
-6.445999e+01
-4.558009e+01
-2.468149e+01
3.564420e-09
2.468149e+01
4.558009e+01
5.958638e+01
6.445999e+01
2.567043e+00
3.630347e+00
1.389795e+00
1.658377e-09
-2.567043e+00
-3.355263e+00
-3.630347e+00
7.398241e+01
5.231346e+01
-6.837651e+01
-7.398241e+01
6.837651e+01
9.861861e+01
-5.339850e+01
1.394678e+02
5.339850e+01
-8.657869e-08
-9.861861e+01
-1.289154e+02
-1.394678e+02
3.355263e+00
2.832248e+01
-2.832248e+01
1.645984e+02
-9.126415e-08
-1.103247e+02
3.926121e-08
1.103247e+02
-1.560226e+02
1.560226e+02
2.327772e+02
-1.645984e+02
-2.327772e+02
5.379474e+01
-7.607726e+01
7.607726e+01
-5.379474e+01
-3.770346e-09
1.236990e+02
1.749367e+02
-1.749367e+02
-1.458393e-07
-1.236990e+02
5.389134e+00
-5.389134e+00
-2.045349e+01
-2.867316e+01
4.158965e-08
-5.349014e+01
1.005195e+02
-4.530608e-08
-2.892560e+01
2.045349e+01
2.892560e+01
3.810692e+00
-2.391666e-08
-3.810692e+00
2.867316e+01
7.564648e+01
-7.564648e+01
5.349014e+01
1.098245e+02
7.765765e+01
-7.765765e+01
-1.098245e+02
2.807561e-08
1.421560e+02
-1.005195e+02
-1.421560e+02
-3.148199e-08
4.054997e+01
1.004873e-08
-4.054997e+01
-1.708970e+02
-4.681523e-08
1.208424e+02
1.708970e+02
1.296409e-07
-1.822109e+02
-1.208424e+02
2.576849e+02
-2.576849e+02
1.822109e+02
-8.016540e+01
-6.128690e+01
1.916742e+02
8.016540e+01
-8.667280e+01
8.667280e+01
2.072573e+02
1.465530e+02
-1.465530e+02
-2.072573e+02
-1.916742e+02
-5.666552e-09
6.128690e+01
3.320559e+01
-7.939405e+01
-1.760723e-07
-3.320559e+01
7.939405e+01
-1.242443e+02
1.242443e+02
1.877579e+02
-1.877579e+02
-1.757080e+02
1.757080e+02
2.655296e+02
2.348365e-07
-2.655296e+02
-8.734359e-08
7.696355e+01
-7.112777e+01
-7.696355e+01
7.075679e+00
2.709075e+00
-6.701463e-08
-2.709075e+00
-5.003260e+00
-6.540286e+00
-7.075678e+00
5.442145e+01
2.946209e+01
-2.946209e+01
1.441944e+02
5.520792e+01
3.102159e-08
-5.520792e+01
-1.019608e+02
-1.332837e+02
-1.441944e+02
6.540286e+00
7.112777e+01
3.759927e-08
-5.442145e+01
1.332837e+02
5.003260e+00
1.019608e+02
6.800840e+01
8.366048e-10
-1.667944e+02
1.667944e+02
-9.617844e+01
9.617844e+01
2.358828e+02
-2.358828e+02
-1.777452e-07
-6.800840e+01
1.803219e-08
3.982827e+01
-3.982827e+01
1.833555e+02
9.935231e+01
-9.935231e+01
-1.039082e+02
9.615404e+01
1.039082e+02
-7.347412e+01
2.593038e+02
-2.398577e+02
-2.593038e+02
-9.615404e+01
2.398577e+02
-1.187843e-07
-1.833555e+02
7.347412e+01
5.509969e+01
7.951771e+01
4.305022e+01
-3.044110e+01
-4.305022e+01
3.044110e+01
1.030169e+02
1.456879e+02
-1.030169e+02
-1.456879e+02
-6.916754e-08
7.792273e+01
-5.509969e+01
-7.792273e+01
1.124550e+02
-1.124550e+02
-7.951771e+01
8.675221e-08
1.332796e-08
7.353300e-08
-1.116739e-07
-3.875929e+01
3.875929e+01
2.186663e+02
-1.018107e-07
-1.546204e+02
-2.186663e+02
2.740694e+01
-2.740694e+01
1.546204e+02
-6.441257e+00
-1.312656e+02
9.109313e+00
6.441257e+00
-1.329670e-07
-9.109313e+00
1.856376e+02
1.312656e+02
3.197037e-08
-1.856376e+02
-7.784316e+01
7.784316e+01
1.963411e+02
-1.963411e+02
-1.100870e+02
4.300128e-08
1.100870e+02
2.776683e+02
-3.950555e-08
-2.776683e+02
5.550200e+01
-3.005385e+01
7.255643e+01
1.353997e+02
1.035788e+02
-5.608439e+01
3.005385e+01
-3.628513e-08
7.849169e+01
-5.550200e+01
-7.255643e+01
-7.849169e+01
1.464825e+02
5.608439e+01
1.127300e-07
-1.035788e+02
-1.353997e+02
-1.464825e+02
1.056961e+02
-8.075472e+01
2.050770e+02
1.111213e+02
-1.142046e+02
1.142046e+02
-4.378067e+01
4.378067e+01
2.900227e+02
-1.111213e+02
-2.050770e+02
-2.682706e+02
-2.900227e+02
6.761339e-08
8.075472e+01
-1.056961e+02
2.682706e+02
4.048056e-08
-7.769588e+00
-1.583355e+02
1.098785e+01
1.016279e+01
-1.749401e-07
-4.209567e+00
-1.016279e+01
-1.098785e+01
2.239202e+02
2.071063e+02
2.379533e-08
-8.578623e+01
-2.071063e+02
-2.239202e+02
8.578623e+01
4.209566e+00
7.769588e+00
1.583355e+02
1.019345e-07
-1.166007e+02
8.655180e-08
1.166007e+02
2.973354e+02
-2.973354e+02
8.244899e+01
-8.244899e+01
-2.102479e+02
2.102479e+02
7.997451e+01
1.642674e-08
1.131010e+02
-7.997451e+01
-1.131010e+02
1.467019e+02
1.151179e-07
-1.037339e+02
-1.467019e+02
1.037339e+02
-4.648432e+01
-4.452154e-08
4.648433e+01
2.781058e+02
-2.781058e+02
-3.286930e+01
3.286930e+01
-1.053232e-07
-1.966504e+02
1.966504e+02
-8.291795e+01
8.291794e+01
-1.085283e+02
9.251180e-08
2.769111e+02
2.117030e+02
-2.117030e+02
-2.769111e+02
-4.495382e+01
4.495382e+01
1.085283e+02
-1.172639e+02
1.172639e+02
1.146141e-07
2.993932e+02
-1.147004e+02
-2.993932e+02
1.147004e+02
1.634965e-07
-8.380240e-08
6.622364e+01
1.295883e+02
-6.622364e+01
9.365439e+01
-9.365439e+01
1.832655e+02
-1.832655e+02
-1.295883e+02
-8.956924e+00
1.266699e+01
8.956924e+00
-1.864516e-07
-1.266699e+01
2.581394e+02
1.825321e+02
1.068192e-08
-2.581394e+02
-1.825321e+02
4.275044e+01
6.045829e+01
-1.943370e-07
-4.275044e+01
-6.045829e+01
1.468252e-07
2.235350e+02
-2.235350e+02
-1.580631e+02
1.580631e+02
1.462004e+02
1.350869e+02
1.033793e+02
5.595485e+01
8.026549e-08
-5.595485e+01
-1.033793e+02
-1.350869e+02
-1.462004e+02
-3.608514e+01
1.286225e-07
3.129398e+02
-4.921872e-08
-3.129398e+02
2.212818e+02
-5.103231e+01
5.103231e+01
-2.212818e+02
3.608514e+01
2.167844e+02
-2.167844e+02
-8.304403e+01
-4.117648e+01
1.074807e+02
7.600030e+01
-7.600030e+01
-1.074807e+02
2.004860e+02
1.532898e+02
-2.004860e+02
-1.532898e+02
4.117648e+01
-1.228332e-07
-9.940886e+01
9.940886e+01
1.900649e-07
8.304403e+01
2.023204e+02
9.927946e+00
1.298978e+01
-1.184642e-07
-9.927946e+00
-2.023204e+02
-1.096495e+02
1.404022e+01
-1.298978e+01
-1.404022e+01
-5.380554e+00
2.647175e+02
-1.716510e-08
2.861243e+02
-2.647175e+02
-2.861243e+02
5.380554e+00
1.096495e+02
1.687579e+02
1.193298e+02
-1.687579e+02
-1.193298e+02
9.062212e-08
1.508646e+02
-1.493387e-08
-1.066774e+02
-1.508646e+02
-1.450133e+02
2.050797e+02
1.736980e-07
-2.050797e+02
1.450133e+02
1.066774e+02
1.511627e+01
-1.068884e+01
-1.511627e+01
3.080533e+02
-2.178265e+02
-3.080533e+02
1.068884e+01
-2.138445e-08
2.178265e+02
-4.664331e-08
1.198484e+02
-1.198484e+02
-8.474553e+01
1.979606e-07
2.464834e+02
-2.464834e+02
1.742901e+02
-1.473115e-07
8.474553e+01
-1.742901e+02
-5.240460e+01
2.111984e-07
3.705546e+01
5.240460e+01
3.232181e+02
-2.441120e-08
-2.285496e+02
-3.232181e+02
2.285496e+02
-3.705546e+01
1.887391e+02
1.745366e+02
1.334587e+02
7.229543e+01
-7.229543e+01
-1.745366e+02
-1.887391e+02
8.743621e-08
-1.334587e+02
7.406810e+01
-7.406810e+01
2.840213e+02
9.904866e-08
-2.840213e+02
-2.008334e+02
5.237399e+01
-1.724737e-07
-5.237399e+01
2.008334e+02
-1.464319e+01
1.582689e+01
8.087685e-08
-1.119133e+01
-1.582689e+01
3.225352e+02
-7.651167e-08
-2.280667e+02
-3.225352e+02
1.464319e+01
1.119133e+01
-6.065434e+00
-2.984125e+02
2.984125e+02
2.280667e+02
-1.236064e+02
1.236064e+02
6.065434e+00
1.202149e+02
9.186687e+01
4.979457e+01
1.037502e+02
1.914689e+02
2.504750e+02
-1.342833e-07
1.299195e+02
-1.202149e+02
-1.299195e+02
1.536500e-07
-1.037502e+02
2.707778e+02
-2.504750e+02
-2.707778e+02
-1.914689e+02
-9.186687e+01
-4.979457e+01
2.063047e+02
1.458795e+02
7.956119e-08
-1.458795e+02
-2.063047e+02
1.148238e+01
2.339979e+02
-2.339979e+02
1.623848e+01
1.622431e-07
-1.623848e+01
-1.148238e+01