# vtk DataFile Version 3.0
Unstructured Grid Example
ASCII
DATASET UNSTRUCTURED_GRID
POINTS 832 float
-1	 0	 0
-1	 0	 3.750000e-01
-1	 0	 7.500000e-01
-1	 0	 1.125000e+00
-1	 0	 1.500000e+00
-1	 0	 1.875000e+00
-1	 0	 2.250000e+00
-1	 0	 2.625000e+00
-1	 0	 3
-9.875000e-01	 0	 0
-9.875000e-01	 0	 1.500000e+00
-9.875000e-01	 0	 3
-9.875000e-01	 0	 2.250000e+00
-9.875000e-01	 0	 7.500000e-01
-9.833054e-01	 -1.819631e-01	 7.500000e-01
-9.833054e-01	 -1.819631e-01	 0
-9.833054e-01	 -1.819631e-01	 1.500000e+00
-9.833054e-01	 -1.819631e-01	 3.000000e+00
-9.833054e-01	 1.819631e-01	 2.250000e+00
-9.833054e-01	 1.819631e-01	 0
-9.833054e-01	 1.819631e-01	 1.500000e+00
-9.833054e-01	 1.819631e-01	 3.000000e+00
-9.833054e-01	 1.819631e-01	 7.500000e-01
-9.833054e-01	 -1.819631e-01	 2.250000e+00
-9.750000e-01	 0	 7.500000e-01
-9.750000e-01	 0	 1.125000e+00
-9.750000e-01	 0	 0
-9.750000e-01	 0	 3.750000e-01
-9.750000e-01	 0	 1.875000e+00
-9.750000e-01	 0	 2.625000e+00
-9.750000e-01	 0	 3
-9.750000e-01	 0	 1.500000e+00
-9.750000e-01	 0	 2.250000e+00
-9.625000e-01	 0	 1.500000e+00
-9.625000e-01	 0	 2.250000e+00
-9.625000e-01	 0	 0
-9.625000e-01	 0	 7.500000e-01
-9.625000e-01	 0	 3
-9.587227e-01	 -1.774140e-01	 0
-9.587227e-01	 -1.774140e-01	 3.000000e+00
-9.587227e-01	 -1.774140e-01	 1.500000e+00
-9.587227e-01	 1.774140e-01	 0
-9.587227e-01	 1.774140e-01	 3.000000e+00
-9.587227e-01	 1.774140e-01	 1.500000e+00
-9.587227e-01	 1.774140e-01	 7.500000e-01
-9.587227e-01	 -1.774140e-01	 7.500000e-01
-9.587227e-01	 -1.774140e-01	 2.250000e+00
-9.587227e-01	 1.774140e-01	 2.250000e+00
-9.500000e-01	 0	 0
-9.500000e-01	 0	 3.750000e-01
-9.500000e-01	 0	 1.125000e+00
-9.500000e-01	 0	 1.500000e+00
-9.500000e-01	 0	 1.875000e+00
-9.500000e-01	 0	 2.250000e+00
-9.500000e-01	 0	 2.625000e+00
-9.500000e-01	 0	 3
-9.500000e-01	 0	 7.500000e-01
-9.341401e-01	 -1.728649e-01	 1.500000e+00
-9.341401e-01	 -1.728649e-01	 0
-9.341401e-01	 -1.728649e-01	 3.000000e+00
-9.341401e-01	 1.728649e-01	 2.250000e+00
-9.341401e-01	 1.728649e-01	 0
-9.341401e-01	 1.728649e-01	 1.500000e+00
-9.341401e-01	 1.728649e-01	 3.000000e+00
-9.341401e-01	 -1.728649e-01	 7.500000e-01
-9.341401e-01	 -1.728649e-01	 2.250000e+00
-9.341401e-01	 1.728649e-01	 7.500000e-01
-9.297883e-01	 -3.680947e-01	 1.125000e+00
-9.297883e-01	 -3.680947e-01	 0
-9.297883e-01	 -3.680947e-01	 7.500000e-01
-9.297883e-01	 -3.680947e-01	 1.500000e+00
-9.297883e-01	 -3.680947e-01	 1.875000e+00
-9.297883e-01	 -3.680947e-01	 2.250000e+00
-9.297883e-01	 -3.680947e-01	 2.625000e+00
-9.297883e-01	 -3.680947e-01	 3.000000e+00
-9.297883e-01	 -3.680947e-01	 3.750000e-01
-9.297883e-01	 3.680947e-01	 3.750000e-01
-9.297883e-01	 3.680947e-01	 2.250000e+00
-9.297883e-01	 3.680947e-01	 2.625000e+00
-9.297883e-01	 3.680947e-01	 0
-9.297883e-01	 3.680947e-01	 7.500000e-01
-9.297883e-01	 3.680947e-01	 1.500000e+00
-9.297883e-01	 3.680947e-01	 1.875000e+00
-9.297883e-01	 3.680947e-01	 3.000000e+00
-9.297883e-01	 3.680947e-01	 1.125000e+00
-9.181659e-01	 3.634935e-01	 7.500000e-01
-9.181659e-01	 -3.634935e-01	 0
-9.181659e-01	 -3.634935e-01	 7.500000e-01
-9.181659e-01	 -3.634935e-01	 2.250000e+00
-9.181659e-01	 -3.634935e-01	 3
-9.181659e-01	 3.634935e-01	 0
-9.181659e-01	 3.634935e-01	 2.250000e+00
-9.181659e-01	 3.634935e-01	 3
-9.181659e-01	 -3.634935e-01	 1.500000e+00
-9.181659e-01	 3.634935e-01	 1.500000e+00
-9.065436e-01	 -3.588923e-01	 1.125000e+00
-9.065436e-01	 -3.588923e-01	 2.625000e+00
-9.065436e-01	 -3.588923e-01	 0
-9.065436e-01	 -3.588923e-01	 3.750000e-01
-9.065436e-01	 -3.588923e-01	 1.500000e+00
-9.065436e-01	 -3.588923e-01	 3
-9.065436e-01	 3.588923e-01	 2.625000e+00
-9.065436e-01	 3.588923e-01	 1.125000e+00
-9.065436e-01	 3.588923e-01	 0
-9.065436e-01	 3.588923e-01	 3.750000e-01
-9.065436e-01	 3.588923e-01	 3
-9.065436e-01	 -3.588923e-01	 7.500000e-01
-9.065436e-01	 -3.588923e-01	 1.875000e+00
-9.065436e-01	 3.588923e-01	 1.875000e+00
-9.065436e-01	 3.588923e-01	 1.500000e+00
-9.065436e-01	 -3.588923e-01	 2.250000e+00
-9.065436e-01	 3.588923e-01	 7.500000e-01
-9.065436e-01	 3.588923e-01	 2.250000e+00
-8.949212e-01	 3.542912e-01	 1.500000e+00
-8.949212e-01	 -3.542912e-01	 1.500000e+00
-8.949212e-01	 -3.542912e-01	 0
-8.949212e-01	 -3.542912e-01	 3.000000e+00
-8.949212e-01	 3.542912e-01	 0
-8.949212e-01	 3.542912e-01	 3.000000e+00
-8.949212e-01	 -3.542912e-01	 2.250000e+00
-8.949212e-01	 -3.542912e-01	 7.500000e-01
-8.949212e-01	 3.542912e-01	 2.250000e+00
-8.949212e-01	 3.542912e-01	 7.500000e-01
-8.832989e-01	 -3.496900e-01	 1.125000e+00
-8.832989e-01	 -3.496900e-01	 1.875000e+00
-8.832989e-01	 -3.496900e-01	 2.625000e+00
-8.832989e-01	 -3.496900e-01	 2.250000e+00
-8.832989e-01	 3.496900e-01	 1.125000e+00
-8.832989e-01	 -3.496900e-01	 0
-8.832989e-01	 -3.496900e-01	 3.000000e+00
-8.832989e-01	 -3.496900e-01	 3.750000e-01
-8.832989e-01	 -3.496900e-01	 7.500000e-01
-8.832989e-01	 3.496900e-01	 3.750000e-01
-8.832989e-01	 3.496900e-01	 7.500000e-01
-8.832989e-01	 3.496900e-01	 2.250000e+00
-8.832989e-01	 3.496900e-01	 2.625000e+00
-8.832989e-01	 3.496900e-01	 0
-8.832989e-01	 3.496900e-01	 1.875000e+00
-8.832989e-01	 3.496900e-01	 3.000000e+00
-8.832989e-01	 -3.496900e-01	 1.500000e+00
-8.832989e-01	 3.496900e-01	 1.500000e+00
-8.369955e-01	 -5.472098e-01	 0
-8.369955e-01	 -5.472098e-01	 7.500000e-01
-8.369955e-01	 -5.472098e-01	 1.500000e+00
-8.369955e-01	 -5.472098e-01	 2.250000e+00
-8.369955e-01	 -5.472098e-01	 3
-8.369955e-01	 5.472098e-01	 0
-8.369955e-01	 5.472098e-01	 7.500000e-01
-8.369955e-01	 5.472098e-01	 1.500000e+00
-8.369955e-01	 5.472098e-01	 2.250000e+00
-8.369955e-01	 5.472098e-01	 3
-8.160706e-01	 -5.335295e-01	 7.500000e-01
-8.160706e-01	 5.335295e-01	 7.500000e-01
-8.160706e-01	 -5.335295e-01	 1.500000e+00
-8.160706e-01	 -5.335295e-01	 2.250000e+00
-8.160706e-01	 5.335295e-01	 1.500000e+00
-8.160706e-01	 5.335295e-01	 2.250000e+00
-8.160706e-01	 -5.335295e-01	 0
-8.160706e-01	 -5.335295e-01	 3.000000e+00
-8.160706e-01	 5.335295e-01	 0
-8.160706e-01	 5.335295e-01	 3.000000e+00
-7.951457e-01	 -5.198493e-01	 7.500000e-01
-7.951457e-01	 5.198493e-01	 7.500000e-01
-7.951457e-01	 -5.198493e-01	 0
-7.951457e-01	 -5.198493e-01	 1.500000e+00
-7.951457e-01	 -5.198493e-01	 2.250000e+00
-7.951457e-01	 -5.198493e-01	 3
-7.951457e-01	 5.198493e-01	 0
-7.951457e-01	 5.198493e-01	 1.500000e+00
-7.951457e-01	 5.198493e-01	 2.250000e+00
-7.951457e-01	 5.198493e-01	 3
-7.071068e-01	 -7.071068e-01	 0
-7.071068e-01	 -7.071068e-01	 3.750000e-01
-7.071068e-01	 -7.071068e-01	 7.500000e-01
-7.071068e-01	 -7.071068e-01	 1.125000e+00
-7.071068e-01	 -7.071068e-01	 1.500000e+00
-7.071068e-01	 -7.071068e-01	 1.875000e+00
-7.071068e-01	 -7.071068e-01	 2.250000e+00
-7.071068e-01	 -7.071068e-01	 2.625000e+00
-7.071068e-01	 -7.071068e-01	 3.000000e+00
-7.071068e-01	 7.071068e-01	 0
-7.071068e-01	 7.071068e-01	 3.750000e-01
-7.071068e-01	 7.071068e-01	 7.500000e-01
-7.071068e-01	 7.071068e-01	 1.125000e+00
-7.071068e-01	 7.071068e-01	 1.500000e+00
-7.071068e-01	 7.071068e-01	 1.875000e+00
-7.071068e-01	 7.071068e-01	 2.250000e+00
-7.071068e-01	 7.071068e-01	 2.625000e+00
-7.071068e-01	 7.071068e-01	 3.000000e+00
-6.982679e-01	 -6.982679e-01	 7.500000e-01
-6.982679e-01	 6.982679e-01	 7.500000e-01
-6.982679e-01	 -6.982679e-01	 0
-6.982679e-01	 -6.982679e-01	 2.250000e+00
-6.982679e-01	 -6.982679e-01	 3.000000e+00
-6.982679e-01	 6.982679e-01	 0
-6.982679e-01	 6.982679e-01	 2.250000e+00
-6.982679e-01	 6.982679e-01	 3.000000e+00
-6.982679e-01	 -6.982679e-01	 1.500000e+00
-6.982679e-01	 6.982679e-01	 1.500000e+00
-6.894291e-01	 -6.894291e-01	 3.750000e-01
-6.894291e-01	 -6.894291e-01	 2.625000e+00
-6.894291e-01	 -6.894291e-01	 0
-6.894291e-01	 -6.894291e-01	 1.500000e+00
-6.894291e-01	 -6.894291e-01	 2.250000e+00
-6.894291e-01	 -6.894291e-01	 3.000000e+00
-6.894291e-01	 6.894291e-01	 3.750000e-01
-6.894291e-01	 6.894291e-01	 2.625000e+00
-6.894291e-01	 -6.894291e-01	 1.875000e+00
-6.894291e-01	 6.894291e-01	 1.875000e+00
-6.894291e-01	 -6.894291e-01	 7.500000e-01
-6.894291e-01	 -6.894291e-01	 1.125000e+00
-6.894291e-01	 6.894291e-01	 0
-6.894291e-01	 6.894291e-01	 1.500000e+00
-6.894291e-01	 6.894291e-01	 2.250000e+00
-6.894291e-01	 6.894291e-01	 3.000000e+00
-6.894291e-01	 6.894291e-01	 7.500000e-01
-6.894291e-01	 6.894291e-01	 1.125000e+00
-6.805903e-01	 6.805903e-01	 7.500000e-01
-6.805903e-01	 -6.805903e-01	 7.500000e-01
-6.805903e-01	 -6.805903e-01	 0
-6.805903e-01	 -6.805903e-01	 1.500000e+00
-6.805903e-01	 -6.805903e-01	 3.000000e+00
-6.805903e-01	 6.805903e-01	 0
-6.805903e-01	 6.805903e-01	 1.500000e+00
-6.805903e-01	 6.805903e-01	 3.000000e+00
-6.805903e-01	 6.805903e-01	 2.250000e+00
-6.805903e-01	 -6.805903e-01	 2.250000e+00
-6.717514e-01	 -6.717514e-01	 2.625000e+00
-6.717514e-01	 6.717514e-01	 2.625000e+00
-6.717514e-01	 -6.717514e-01	 0
-6.717514e-01	 -6.717514e-01	 3.750000e-01
-6.717514e-01	 -6.717514e-01	 7.500000e-01
-6.717514e-01	 -6.717514e-01	 1.125000e+00
-6.717514e-01	 -6.717514e-01	 1.875000e+00
-6.717514e-01	 -6.717514e-01	 3.000000e+00
-6.717514e-01	 -6.717514e-01	 2.250000e+00
-6.717514e-01	 6.717514e-01	 1.500000e+00
-6.717514e-01	 6.717514e-01	 0
-6.717514e-01	 6.717514e-01	 3.750000e-01
-6.717514e-01	 6.717514e-01	 7.500000e-01
-6.717514e-01	 6.717514e-01	 1.125000e+00
-6.717514e-01	 6.717514e-01	 1.875000e+00
-6.717514e-01	 6.717514e-01	 3.000000e+00
-6.717514e-01	 -6.717514e-01	 1.500000e+00
-6.717514e-01	 6.717514e-01	 2.250000e+00
-5.472098e-01	 -8.369955e-01	 0
-5.472098e-01	 -8.369955e-01	 7.500000e-01
-5.472098e-01	 -8.369955e-01	 1.500000e+00
-5.472098e-01	 -8.369955e-01	 2.250000e+00
-5.472098e-01	 -8.369955e-01	 3
-5.472098e-01	 8.369955e-01	 0
-5.472098e-01	 8.369955e-01	 7.500000e-01
-5.472098e-01	 8.369955e-01	 1.500000e+00
-5.472098e-01	 8.369955e-01	 2.250000e+00
-5.472098e-01	 8.369955e-01	 3
-5.335295e-01	 -8.160706e-01	 1.500000e+00
-5.335295e-01	 -8.160706e-01	 2.250000e+00
-5.335295e-01	 8.160706e-01	 0
-5.335295e-01	 8.160706e-01	 3.000000e+00
[...]
POINT_DATA 832
VECTORS displacement float
0	 0	 2.411932e-13
3.897941e-13	 -2.145398e-07	 2.239031e-13
7.418821e-13	 -3.978796e-07	 1.776138e-13
1.006497e-12	 -5.179450e-07	 1.018603e-13
1.136063e-12	 -5.626867e-07	 9.790997e-15
1.099417e-12	 -5.179449e-07	 -8.941104e-14
8.650487e-13	 -3.978795e-07	 -1.784107e-13
4.827011e-13	 -2.145398e-07	 -2.379479e-13
0	 0	 -2.623710e-13
0	 0	 2.274774e-13
1.137426e-12	 -5.867000e-07	 7.827506e-15
0	 0	 -2.447290e-13
8.662456e-13	 -4.148595e-07	 -1.673287e-13
7.426153e-13	 -4.148596e-07	 1.665322e-13
-2.316581e-07	 -4.205268e-07	 -5.485263e-08
0	 0	 -7.757335e-08
-3.276139e-07	 -5.947147e-07	 1.952094e-14
0	 0	 7.757331e-08
2.316596e-07	 -4.205268e-07	 -5.485297e-08
0	 0	 7.757381e-08
3.276162e-07	 -5.947147e-07	 -1.983335e-15
0	 0	 -7.757381e-08
2.316596e-07	 -4.205268e-07	 5.485297e-08
-2.316579e-07	 -4.205268e-07	 5.485263e-08
7.434000e-13	 -4.318255e-07	 1.554412e-13
1.008777e-12	 -5.625976e-07	 8.861970e-14
0	 0	 2.137403e-13
3.906192e-13	 -2.330356e-07	 1.992350e-13
1.102104e-12	 -5.625975e-07	 -8.045862e-14
4.839343e-13	 -2.330355e-07	 -2.089918e-13
0	 0	 -2.270820e-13
1.138776e-12	 -6.106934e-07	 5.872121e-15
8.673705e-13	 -4.318254e-07	 -1.562374e-13
1.139991e-12	 -6.345319e-07	 3.912887e-15
8.683903e-13	 -4.486817e-07	 -1.451370e-13
0	 0	 1.999944e-13
7.440992e-13	 -4.486818e-07	 1.443413e-13
0	 0	 -2.094185e-13
0	 0	 -6.575494e-08
0	 0	 6.575492e-08
-3.207426e-07	 -6.358581e-07	 1.208575e-14
0	 0	 6.575535e-08
0	 0	 -6.575535e-08
3.207449e-07	 -6.358581e-07	 -1.365309e-15
2.268009e-07	 -4.496196e-07	 4.649605e-08
-2.267994e-07	 -4.496196e-07	 -4.649576e-08
-2.267992e-07	 -4.496196e-07	 4.649576e-08
2.268009e-07	 -4.496195e-07	 -4.649606e-08
0	 0	 1.862425e-13
3.914592e-13	 -2.514559e-07	 1.745156e-13
1.010884e-12	 -6.070682e-07	 7.534541e-14
1.141217e-12	 -6.584769e-07	 1.940025e-15
1.104324e-12	 -6.070681e-07	 -7.149013e-14
8.693491e-13	 -4.656134e-07	 -1.340229e-13
4.848858e-13	 -2.514558e-07	 -1.799668e-13
0	 0	 -1.917218e-13
7.448744e-13	 -4.656135e-07	 1.332276e-13
-3.133105e-07	 -6.771546e-07	 4.639187e-15
0	 0	 -5.391849e-08
0	 0	 5.391848e-08
2.215456e-07	 -4.788205e-07	 -3.812638e-08
0	 0	 5.391885e-08
3.133128e-07	 -6.771546e-07	 -7.444389e-16
0	 0	 -5.391885e-08
-2.215441e-07	 -4.788206e-07	 -3.812613e-08
-2.215438e-07	 -4.788205e-07	 3.812613e-08
2.215456e-07	 -4.788206e-07	 3.812638e-08
-5.662928e-07	 -6.303281e-07	 -5.608070e-08
0	 0	 -1.477636e-07
-4.299963e-07	 -4.820890e-07	 -1.044846e-07
-6.081064e-07	 -6.817767e-07	 2.307043e-14
-5.662926e-07	 -6.303280e-07	 5.608073e-08
-4.299961e-07	 -4.820889e-07	 1.044846e-07
-2.345660e-07	 -2.610904e-07	 1.353908e-07
0	 0	 1.477636e-07
-2.345662e-07	 -2.610905e-07	 -1.353908e-07
2.345671e-07	 -2.610905e-07	 1.353912e-07
4.299977e-07	 -4.820888e-07	 -1.044849e-07
2.345670e-07	 -2.610904e-07	 -1.353912e-07
0	 0	 1.477640e-07
4.299979e-07	 -4.820890e-07	 1.044849e-07
6.081087e-07	 -6.817767e-07	 -1.357876e-14
5.662948e-07	 -6.303280e-07	 -5.608088e-08
0	 0	 -1.477640e-07
5.662949e-07	 -6.303281e-07	 5.608087e-08
4.264044e-07	 -4.936978e-07	 9.655202e-08
0	 0	 -1.365448e-07
-4.264029e-07	 -4.936978e-07	 -9.655174e-08
-4.264026e-07	 -4.936977e-07	 9.655174e-08
0	 0	 1.365448e-07
0	 0	 1.365452e-07
4.264043e-07	 -4.936977e-07	 -9.655202e-08
0	 0	 -1.365452e-07
-6.030246e-07	 -6.981941e-07	 1.857086e-14
6.030268e-07	 -6.981941e-07	 -1.105468e-14
-5.564929e-07	 -6.605287e-07	 -4.809531e-08
-2.305068e-07	 -2.735999e-07	 1.161124e-07
0	 0	 -1.253385e-07
-2.305070e-07	 -2.736000e-07	 -1.161124e-07
-5.977104e-07	 -7.145125e-07	 1.409096e-14
0	 0	 1.253385e-07
2.305077e-07	 -2.735999e-07	 -1.161127e-07
5.564950e-07	 -6.605287e-07	 4.809545e-08
0	 0	 1.253389e-07
2.305078e-07	 -2.736000e-07	 1.161127e-07
0	 0	 -1.253389e-07
-4.226452e-07	 -5.052367e-07	 -8.862771e-08
-5.564927e-07	 -6.605286e-07	 4.809533e-08
5.564949e-07	 -6.605286e-07	 -4.809546e-08
5.977127e-07	 -7.145125e-07	 -8.543142e-15
-4.226449e-07	 -5.052366e-07	 8.862771e-08
4.226467e-07	 -5.052367e-07	 8.862797e-08
4.226466e-07	 -5.052366e-07	 -8.862797e-08
5.923007e-07	 -7.306839e-07	 -6.030134e-15
-5.922984e-07	 -7.306840e-07	 9.605090e-15
0	 0	 -1.141245e-07
0	 0	 1.141245e-07
0	 0	 1.141248e-07
0	 0	 -1.141248e-07
-4.188181e-07	 -5.166715e-07	 8.069821e-08
-4.188184e-07	 -5.166716e-07	 -8.069821e-08
4.188198e-07	 -5.166715e-07	 -8.069844e-08
4.188199e-07	 -5.166716e-07	 8.069844e-08
-5.459612e-07	 -6.903165e-07	 -4.009491e-08
-5.459610e-07	 -6.903164e-07	 4.009492e-08
-2.261444e-07	 -2.859384e-07	 9.679768e-08
-4.147891e-07	 -5.280749e-07	 7.274735e-08
5.459632e-07	 -6.903165e-07	 4.009503e-08
0	 0	 -1.028803e-07
0	 0	 1.028803e-07
-2.261446e-07	 -2.859385e-07	 -9.679769e-08
-4.147894e-07	 -5.280750e-07	 -7.274735e-08
2.261454e-07	 -2.859385e-07	 9.679797e-08
4.147910e-07	 -5.280750e-07	 7.274756e-08
4.147908e-07	 -5.280749e-07	 -7.274756e-08
2.261453e-07	 -2.859384e-07	 -9.679796e-08
0	 0	 1.028806e-07
5.459632e-07	 -6.903164e-07	 -4.009503e-08
0	 0	 -1.028806e-07
-5.866006e-07	 -7.468108e-07	 5.087011e-15
5.866029e-07	 -7.468108e-07	 -3.498552e-15
0	 0	 -1.987675e-07
-5.590968e-07	 -5.558069e-07	 -1.405498e-07
-7.906822e-07	 -7.860296e-07	 2.054843e-14
-5.590966e-07	 -5.558068e-07	 1.405498e-07
0	 0	 1.987674e-07
0	 0	 1.987677e-07
5.590983e-07	 -5.558069e-07	 1.405500e-07
7.906843e-07	 -7.860295e-07	 -2.173164e-14
5.590981e-07	 -5.558067e-07	 -1.405500e-07
0	 0	 -1.987677e-07
-5.535128e-07	 -5.667130e-07	 -1.194127e-07
5.535143e-07	 -5.667130e-07	 1.194129e-07
-7.827851e-07	 -8.014531e-07	 1.285351e-14
-5.535125e-07	 -5.667129e-07	 1.194127e-07
7.827873e-07	 -8.014530e-07	 -1.392817e-14
5.535141e-07	 -5.667128e-07	 -1.194129e-07
0	 0	 -1.688751e-07
0	 0	 1.688750e-07
0	 0	 1.688753e-07
0	 0	 -1.688753e-07
-5.471633e-07	 -5.772026e-07	 -9.825555e-08
5.471648e-07	 -5.772026e-07	 9.825569e-08
0	 0	 -1.389543e-07
-7.738056e-07	 -8.162877e-07	 5.151818e-15
-5.471630e-07	 -5.772025e-07	 9.825555e-08
0	 0	 1.389543e-07
0	 0	 1.389545e-07
7.738078e-07	 -8.162876e-07	 -6.116430e-15
5.471646e-07	 -5.772024e-07	 -9.825569e-08
0	 0	 -1.389545e-07
0	 0	 -2.152176e-07
-3.221078e-07	 -3.221083e-07	 -1.973843e-07
-5.917340e-07	 -5.917347e-07	 -1.521818e-07
-7.776371e-07	 -7.776381e-07	 -8.175925e-08
-8.368381e-07	 -8.368393e-07	 9.057757e-15
-7.776370e-07	 -7.776381e-07	 8.175926e-08
-5.917338e-07	 -5.917347e-07	 1.521818e-07
-3.221077e-07	 -3.221082e-07	 1.973843e-07
0	 0	 2.152176e-07
0	 0	 2.152177e-07
3.221085e-07	 -3.221082e-07	 1.973844e-07
5.917353e-07	 -5.917346e-07	 1.521819e-07
7.776387e-07	 -7.776378e-07	 8.175928e-08
8.368399e-07	 -8.368389e-07	 -2.103980e-14
7.776386e-07	 -7.776377e-07	 -8.175931e-08
5.917351e-07	 -5.917344e-07	 -1.521819e-07
3.221084e-07	 -3.221081e-07	 -1.973844e-07
0	 0	 -2.152177e-07
-5.926765e-07	 -5.926773e-07	 -1.406896e-07
5.926778e-07	 -5.926771e-07	 1.406897e-07
0	 0	 -1.989652e-07
-5.926764e-07	 -5.926773e-07	 1.406896e-07
0	 0	 1.989652e-07
0	 0	 1.989653e-07
5.926776e-07	 -5.926770e-07	 -1.406897e-07
0	 0	 -1.989652e-07
-8.381711e-07	 -8.381723e-07	 7.240183e-15
8.381729e-07	 -8.381719e-07	 -1.710153e-14
-3.229458e-07	 -3.229462e-07	 -1.693885e-07
-3.229456e-07	 -3.229462e-07	 1.693885e-07
0	 0	 -1.827286e-07
-8.392617e-07	 -8.392630e-07	 5.432985e-15
-5.934476e-07	 -5.934485e-07	 1.292086e-07
0	 0	 1.827286e-07
3.229465e-07	 -3.229461e-07	 1.693885e-07
3.229463e-07	 -3.229460e-07	 -1.693885e-07
-7.796598e-07	 -7.796610e-07	 7.016300e-08
7.796615e-07	 -7.796606e-07	 -7.016304e-08
-5.934477e-07	 -5.934485e-07	 -1.292086e-07
-7.796599e-07	 -7.796611e-07	 -7.016300e-08
0	 0	 1.827287e-07
8.392635e-07	 -8.392626e-07	 -1.318206e-14
5.934488e-07	 -5.934482e-07	 -1.292087e-07
0	 0	 -1.827287e-07
5.934490e-07	 -5.934483e-07	 1.292087e-07
7.796617e-07	 -7.796608e-07	 7.016302e-08
5.941215e-07	 -5.941208e-07	 1.177168e-07
-5.941202e-07	 -5.941210e-07	 -1.177167e-07
0	 0	 -1.664766e-07
-8.402127e-07	 -8.402140e-07	 3.624316e-15
0	 0	 1.664766e-07
0	 0	 1.664767e-07
8.402146e-07	 -8.402136e-07	 -9.258839e-15
0	 0	 -1.664767e-07
5.941213e-07	 -5.941206e-07	 -1.177168e-07
-5.941200e-07	 -5.941210e-07	 1.177167e-07
-3.234544e-07	 -3.234549e-07	 1.413299e-07
3.234551e-07	 -3.234547e-07	 -1.413299e-07
0	 0	 -1.501819e-07
-3.234545e-07	 -3.234550e-07	 -1.413299e-07
-5.946020e-07	 -5.946029e-07	 -1.061947e-07
-7.808881e-07	 -7.808893e-07	 -5.854076e-08
-7.808880e-07	 -7.808893e-07	 5.854076e-08
0	 0	 1.501819e-07
-5.946019e-07	 -5.946029e-07	 1.061947e-07
8.408960e-07	 -8.408951e-07	 -5.306007e-15
0	 0	 1.501820e-07
3.234552e-07	 -3.234548e-07	 1.413300e-07
5.946034e-07	 -5.946027e-07	 1.061947e-07
7.808899e-07	 -7.808890e-07	 5.854078e-08
7.808898e-07	 -7.808889e-07	 -5.854079e-08
0	 0	 -1.501820e-07
-8.408942e-07	 -8.408955e-07	 1.800535e-15
5.946032e-07	 -5.946025e-07	 -1.061947e-07
0	 0	 -1.987677e-07
-5.558065e-07	 -5.590980e-07	 -1.405500e-07
-7.860291e-07	 -7.906841e-07	 -5.632084e-15
-5.558065e-07	 -5.590981e-07	 1.405500e-07
0	 0	 1.987677e-07
0	 0	 1.987676e-07
5.558074e-07	 -5.590975e-07	 1.405499e-07
7.860303e-07	 -7.906831e-07	 -1.413933e-14
5.558073e-07	 -5.590974e-07	 -1.405499e-07
0	 0	 -1.987676e-07
-8.014525e-07	 -7.827871e-07	 -3.748806e-15
-5.667125e-07	 -5.535141e-07	 1.194128e-07
0	 0	 1.688752e-07
0	 0	 -1.688751e-07
8.014538e-07	 -7.827861e-07	 -9.036290e-15
5.667133e-07	 -5.535133e-07	 -1.194128e-07
-5.667125e-07	 -5.535140e-07	 -1.194128e-07
0	 0	 -1.688753e-07
0	 0	 1.688753e-07
5.667135e-07	 -5.535134e-07	 1.194128e-07
5.772031e-07	 -5.471639e-07	 9.825560e-08
-5.772021e-07	 -5.471646e-07	 -9.825568e-08
0	 0	 -1.389545e-07
-8.162870e-07	 -7.738076e-07	 -1.863042e-15
-5.772020e-07	 -5.471647e-07	 9.825568e-08
0	 0	 1.389545e-07
0	 0	 1.389544e-07
8.162884e-07	 -7.738066e-07	 -3.928014e-15
5.772030e-07	 -5.471638e-07	 -9.825560e-08
0	 0	 -1.389544e-07
-6.303279e-07	 -5.662951e-07	 -5.608090e-08
6.303286e-07	 -5.662934e-07	 5.608075e-08
0	 0	 -1.477640e-07
-4.820888e-07	 -4.299980e-07	 -1.044850e-07
-6.817765e-07	 -6.081092e-07	 -1.903413e-14
-6.303279e-07	 -5.662953e-07	 5.608088e-08
0	 0	 1.477641e-07
0	 0	 1.477637e-07
4.820893e-07	 -4.299967e-07	 1.044847e-07
6.817772e-07	 -6.081072e-07	 -8.093293e-16
6.303285e-07	 -5.662935e-07	 -5.608076e-08
4.820893e-07	 -4.299968e-07	 -1.044847e-07
2.610906e-07	 -2.345664e-07	 -1.353909e-07
0	 0	 -1.477637e-07
-2.610904e-07	 -2.345671e-07	 -1.353912e-07
-4.820888e-07	 -4.299982e-07	 1.044850e-07
-2.610904e-07	 -2.345673e-07	 1.353913e-07
2.610907e-07	 -2.345664e-07	 1.353909e-07
-6.981939e-07	 -6.030273e-07	 -1.547966e-14
6.981947e-07	 -6.030253e-07	 -6.921430e-16
-4.936976e-07	 -4.264046e-07	 -9.655205e-08
0	 0	 -1.365452e-07
-4.936977e-07	 -4.264048e-07	 9.655205e-08
0	 0	 1.365452e-07
0	 0	 1.365449e-07
4.936982e-07	 -4.264033e-07	 9.655181e-08
4.936982e-07	 -4.264033e-07	 -9.655181e-08
0	 0	 -1.365449e-07
-5.052365e-07	 -4.226471e-07	 8.862799e-08
5.052370e-07	 -4.226456e-07	 -8.862777e-08
6.605292e-07	 -5.564935e-07	 4.809535e-08
2.736001e-07	 -2.305072e-07	 -1.161124e-07
0	 0	 -1.253389e-07
-2.735998e-07	 -2.305078e-07	 -1.161127e-07
0	 0	 1.253389e-07
-7.145123e-07	 -5.977131e-07	 -1.193846e-14
0	 0	 1.253386e-07
2.736002e-07	 -2.305072e-07	 1.161124e-07
7.145131e-07	 -5.977111e-07	 -5.793473e-16
0	 0	 -1.253386e-07
-6.605284e-07	 -5.564953e-07	 -4.809548e-08
-6.605285e-07	 -5.564955e-07	 4.809546e-08
-5.052365e-07	 -4.226469e-07	 -8.862799e-08
5.052371e-07	 -4.226456e-07	 8.862777e-08
6.605292e-07	 -5.564936e-07	 -4.809535e-08
-2.735998e-07	 -2.305080e-07	 1.161127e-07
-7.306837e-07	 -5.923012e-07	 -8.390191e-15
-5.166714e-07	 -4.188203e-07	 8.069847e-08
5.166720e-07	 -4.188188e-07	 -8.069826e-08
0	 0	 1.141246e-07
0	 0	 -1.141246e-07
7.306846e-07	 -5.922992e-07	 -4.689635e-16
0	 0	 -1.141249e-07
0	 0	 1.141249e-07
-5.166714e-07	 -4.188201e-07	 -8.069847e-08
5.166721e-07	 -4.188188e-07	 8.069826e-08
-6.903161e-07	 -5.459636e-07	 -4.009505e-08
0	 0	 -1.028806e-07
-6.903161e-07	 -5.459637e-07	 4.009504e-08
0	 0	 1.028806e-07
-7.468104e-07	 -5.866034e-07	 -4.817636e-15
0	 0	 1.028803e-07
0	 0	 -1.028803e-07
6.903171e-07	 -5.459618e-07	 4.009494e-08
6.903170e-07	 -5.459618e-07	 -4.009494e-08
2.859386e-07	 -2.261448e-07	 -9.679774e-08
-2.859383e-07	 -2.261455e-07	 -9.679799e-08
-5.280747e-07	 -4.147911e-07	 -7.274758e-08
-5.280747e-07	 -4.147914e-07	 7.274758e-08
-2.859383e-07	 -2.261456e-07	 9.679800e-08
7.468114e-07	 -5.866014e-07	 -3.548202e-16
2.859387e-07	 -2.261448e-07	 9.679774e-08
5.280754e-07	 -4.147898e-07	 -7.274739e-08
5.280755e-07	 -4.147898e-07	 7.274739e-08
-4.205268e-07	 -2.316602e-07	 -5.485306e-08
4.205271e-07	 -2.316582e-07	 5.485266e-08
0	 0	 -7.757391e-08
-5.947147e-07	 -3.276172e-07	 -2.761674e-14
0	 0	 7.757396e-08
0	 0	 7.757336e-08
5.947151e-07	 -3.276142e-07	 1.268176e-14
0	 0	 -7.757338e-08
-4.205268e-07	 -2.316605e-07	 5.485306e-08
4.205271e-07	 -2.316583e-07	 -5.485266e-08
-4.496195e-07	 -2.268015e-07	 -4.649612e-08
0	 0	 -6.575543e-08
0	 0	 6.575546e-08
4.496199e-07	 -2.267994e-07	 4.649578e-08
4.496199e-07	 -2.267996e-07	 -4.649578e-08
0	 0	 6.575495e-08
0	 0	 -6.575497e-08
-4.496196e-07	 -2.268018e-07	 4.649612e-08
6.358586e-07	 -3.207429e-07	 7.902545e-15
-6.358581e-07	 -3.207460e-07	 -1.748889e-14
6.771551e-07	 -3.133108e-07	 3.122773e-15
0	 0	 -5.391891e-08
-6.771545e-07	 -3.133138e-07	 -7.351335e-15
0	 0	 5.391892e-08
0	 0	 5.391850e-08
0	 0	 -5.391851e-08
-4.788205e-07	 -2.215465e-07	 3.812643e-08
-4.788205e-07	 -2.215462e-07	 -3.812643e-08
4.788210e-07	 -2.215441e-07	 3.812614e-08
4.788209e-07	 -2.215442e-07	 -3.812614e-08
0	 0	 -3.784828e-13
-2.145398e-07	 -8.389462e-13	 -3.536048e-13
-3.978796e-07	 -1.600377e-12	 -2.859946e-13
-5.179449e-07	 -2.195297e-12	 -1.706364e-13
-5.626867e-07	 -2.489553e-12	 -2.621307e-14
-5.179450e-07	 -2.435710e-12	 1.359698e-13
-3.978796e-07	 -1.920520e-12	 2.851626e-13
-2.145398e-07	 -1.079319e-12	 3.865965e-13
0	 0	 4.292250e-13
0	 0	 -3.493104e-13
-5.867000e-07	 -2.493917e-12	 -2.122688e-14
0	 0	 3.900829e-13
-4.148596e-07	 -1.924241e-12	 2.610089e-13
-4.148595e-07	 -1.602829e-12	 -2.618423e-13
-4.318254e-07	 -1.604668e-12	 -2.377416e-13
-5.625975e-07	 -2.201019e-12	 -1.405814e-13
0	 0	 -3.201840e-13
-2.330355e-07	 -8.410231e-13	 -3.003124e-13
-5.625975e-07	 -2.442434e-12	 1.172080e-13
-2.330355e-07	 -1.082399e-12	 3.220108e-13
0	 0	 3.510405e-13
-6.106933e-07	 -2.497146e-12	 -1.626754e-14
-4.318254e-07	 -1.926967e-12	 2.369068e-13
-6.345319e-07	 -2.499696e-12	 -1.129857e-14
-4.486818e-07	 -1.929184e-12	 2.127703e-13
0	 0	 -2.910188e-13
-4.486818e-07	 -1.606058e-12	 -2.136065e-13
0	 0	 3.119399e-13
0	 0	 -2.617783e-13
-2.514558e-07	 -8.419967e-13	 -2.469002e-13
-6.070681e-07	 -2.203473e-12	 -1.104451e-13
-6.584769e-07	 -2.500958e-12	 -6.290346e-15
-6.070682e-07	 -2.445035e-12	 9.840976e-14
-4.656135e-07	 -1.930273e-12	 1.885529e-13
-2.514559e-07	 -1.083519e-12	 2.572603e-13
0	 0	 2.726856e-13
-4.656135e-07	 -1.606753e-12	 -1.893905e-13
4.656139e-07	 1.116777e-12	 -1.484088e-13
0	 0	 -2.145426e-13
2.514561e-07	 6.339174e-13	 -2.013712e-13
6.070686e-07	 1.389421e-12	 -7.721916e-14
6.584774e-07	 1.390792e-12	 4.421283e-15
6.070686e-07	 1.190616e-12	 8.549907e-14
4.656138e-07	 8.505920e-13	 1.475715e-13
2.514560e-07	 4.351898e-13	 1.913925e-13
0	 0	 2.039790e-13
0	 0	 -2.377605e-13
4.486821e-07	 1.115741e-12	 -1.619168e-13
0	 0	 2.189993e-13
6.345323e-07	 1.389537e-12	 8.522788e-15
4.486821e-07	 8.498536e-13	 1.610770e-13
6.106938e-07	 1.388031e-12	 1.259088e-14
4.318257e-07	 8.491273e-13	 1.745548e-13
0	 0	 -2.609056e-13
2.330357e-07	 6.329478e-13	 -2.388529e-13
5.625979e-07	 1.188361e-12	 1.037538e-13
2.330357e-07	 4.342705e-13	 2.195073e-13
0	 0	 2.340136e-13
4.318257e-07	 1.114336e-12	 -1.753971e-13
5.625979e-07	 1.387115e-12	 -8.610679e-14
4.148598e-07	 1.112748e-12	 -1.888636e-13
4.148598e-07	 8.482729e-13	 1.880188e-13
0	 0	 -2.840234e-13
5.867004e-07	 1.386305e-12	 1.665124e-14
0	 0	 2.490160e-13
0	 0	 -3.071692e-13
2.145400e-07	 6.312108e-13	 -2.762387e-13
3.978798e-07	 1.110824e-12	 -2.023325e-13
5.179453e-07	 1.383486e-12	 -9.498029e-14
5.626870e-07	 1.384343e-12	 2.073586e-14
5.179452e-07	 1.185527e-12	 1.219583e-13
3.978798e-07	 8.474182e-13	 2.014852e-13
2.145399e-07	 4.333284e-13	 2.475623e-13
0	 0	 2.639977e-13
-4.788206e-07	 2.215432e-07	 3.812608e-08
-4.788207e-07	 2.215429e-07	 -3.812608e-08
4.788210e-07	 2.215462e-07	 -3.812642e-08
4.788209e-07	 2.215459e-07	 3.812642e-08
0	 0	 5.391842e-08
0	 0	 -5.391841e-08
0	 0	 -5.391891e-08
6.771551e-07	 3.133135e-07	 5.653333e-15
0	 0	 5.391890e-08
-6.771546e-07	 3.133092e-07	 -5.179591e-15
6.358586e-07	 3.207456e-07	 1.453803e-14
-6.358581e-07	 3.207413e-07	 -1.199282e-14
4.496199e-07	 2.268013e-07	 4.649611e-08
0	 0	 6.575483e-08
0	 0	 -6.575481e-08
-4.496196e-07	 2.267985e-07	 4.649568e-08
-4.496196e-07	 2.267983e-07	 -4.649568e-08
0	 0	 -6.575545e-08
0	 0	 6.575542e-08
4.496199e-07	 2.268016e-07	 -4.649611e-08
-4.205268e-07	 2.316570e-07	 -5.485253e-08
4.205271e-07	 2.316600e-07	 5.485304e-08
0	 0	 7.757321e-08
-5.947147e-07	 3.276126e-07	 -1.880311e-14
0	 0	 -7.757317e-08
0	 0	 -7.757394e-08
5.947151e-07	 3.276169e-07	 2.341869e-14
0	 0	 7.757389e-08
-4.205268e-07	 2.316572e-07	 5.485253e-08
4.205271e-07	 2.316603e-07	 -5.485304e-08
-5.280751e-07	 4.147887e-07	 7.274733e-08
-5.280752e-07	 4.147887e-07	 -7.274733e-08
-2.859385e-07	 2.261442e-07	 9.679765e-08
-7.468110e-07	 5.865998e-07	 -1.260041e-15
2.859386e-07	 2.261458e-07	 -9.679805e-08
5.280753e-07	 4.147917e-07	 -7.274762e-08
5.280753e-07	 4.147915e-07	 7.274762e-08
2.859386e-07	 2.261457e-07	 9.679804e-08
-6.903166e-07	 5.459603e-07	 4.009490e-08
-6.903167e-07	 5.459603e-07	 -4.009490e-08
-2.859386e-07	 2.261441e-07	 -9.679765e-08
0	 0	 1.028803e-07
0	 0	 -1.028803e-07
7.468113e-07	 5.866039e-07	 3.360703e-15
0	 0	 -1.028807e-07
6.903169e-07	 5.459640e-07	 4.009507e-08
0	 0	 1.028807e-07
6.903169e-07	 5.459642e-07	 -4.009506e-08
-5.166717e-07	 4.188177e-07	 8.069818e-08
5.166719e-07	 4.188207e-07	 -8.069851e-08
0	 0	 -1.141249e-07
0	 0	 1.141249e-07
-7.306842e-07	 5.922976e-07	 -1.922383e-15
0	 0	 1.141245e-07
0	 0	 -1.141245e-07
-5.166718e-07	 4.188176e-07	 -8.069818e-08
5.166719e-07	 4.188204e-07	 8.069851e-08
7.306845e-07	 5.923017e-07	 6.532718e-15
2.736001e-07	 2.305081e-07	 1.161128e-07
-5.052367e-07	 4.226445e-07	 8.862768e-08
-6.605289e-07	 5.564921e-07	 -4.809530e-08
5.052370e-07	 4.226475e-07	 -8.862805e-08
6.605291e-07	 5.564958e-07	 4.809550e-08
6.605291e-07	 5.564960e-07	 -4.809549e-08
0	 0	 1.253385e-07
-2.736000e-07	 2.305066e-07	 1.161123e-07
-7.145127e-07	 5.977096e-07	 -2.580985e-15
0	 0	 -1.253385e-07
7.145130e-07	 5.977137e-07	 9.679493e-15
0	 0	 -1.253390e-07
2.736001e-07	 2.305082e-07	 -1.161128e-07
0	 0	 1.253390e-07
-6.605288e-07	 5.564921e-07	 4.809529e-08
-2.736000e-07	 2.305066e-07	 -1.161123e-07
-5.052368e-07	 4.226445e-07	 -8.862768e-08
5.052370e-07	 4.226473e-07	 8.862805e-08
0	 0	 1.365447e-07
-4.936978e-07	 4.264023e-07	 9.655170e-08
-4.936979e-07	 4.264022e-07	 -9.655170e-08
0	 0	 -1.365447e-07
0	 0	 -1.365453e-07
4.936981e-07	 4.264050e-07	 9.655211e-08
0	 0	 1.365453e-07
4.936981e-07	 4.264052e-07	 -9.655211e-08
-6.981942e-07	 6.030238e-07	 -3.235926e-15
6.981946e-07	 6.030278e-07	 1.282063e-14
-2.610904e-07	 2.345659e-07	 1.353908e-07
2.610906e-07	 2.345675e-07	 -1.353913e-07
4.820892e-07	 4.299984e-07	 1.044850e-07
2.610906e-07	 2.345673e-07	 1.353913e-07
0	 0	 1.477635e-07
-4.820889e-07	 4.299957e-07	 1.044846e-07
-6.817768e-07	 6.081057e-07	 -3.891950e-15
-6.303282e-07	 5.662920e-07	 -5.608069e-08
-4.820890e-07	 4.299956e-07	 -1.044846e-07
-2.610905e-07	 2.345658e-07	 -1.353908e-07
0	 0	 -1.477635e-07
0	 0	 -1.477642e-07
4.820893e-07	 4.299986e-07	 -1.044850e-07
6.817772e-07	 6.081097e-07	 1.597875e-14
6.303285e-07	 5.662957e-07	 5.608094e-08
0	 0	 1.477641e-07
-6.303281e-07	 5.662921e-07	 5.608069e-08
6.303285e-07	 5.662958e-07	 -5.608092e-08
0	 0	 1.389543e-07
-8.162883e-07	 7.738054e-07	 2.848943e-15
-5.772031e-07	 5.471631e-07	 -9.825556e-08