# vtk DataFile Version 3.0
Unstructured Grid Example
ASCII
DATASET UNSTRUCTURED_GRID
POINTS 832 float
-1	 0	 0
-1	 0	 3.750000e-01
-1	 0	 7.500000e-01
-1	 0	 1.125000e+00
-1	 0	 1.500000e+00
-1	 0	 1.875000e+00
-1	 0	 2.250000e+00
-1	 0	 2.625000e+00
-1	 0	 3
-9.875000e-01	 0	 0
-9.875000e-01	 0	 1.500000e+00
-9.875000e-01	 0	 3
-9.875000e-01	 0	 2.250000e+00
-9.875000e-01	 0	 7.500000e-01
-9.833054e-01	 -1.819631e-01	 7.500000e-01
-9.833054e-01	 -1.819631e-01	 0
-9.833054e-01	 -1.819631e-01	 1.500000e+00
-9.833054e-01	 -1.819631e-01	 3.000000e+00
-9.833054e-01	 1.819631e-01	 2.250000e+00
-9.833054e-01	 1.819631e-01	 0
-9.833054e-01	 1.819631e-01	 1.500000e+00
-9.833054e-01	 1.819631e-01	 3.000000e+00
-9.833054e-01	 1.819631e-01	 7.500000e-01
-9.833054e-01	 -1.819631e-01	 2.250000e+00
-9.750000e-01	 0	 7.500000e-01
-9.750000e-01	 0	 1.125000e+00
-9.750000e-01	 0	 0
-9.750000e-01	 0	 3.750000e-01
-9.750000e-01	 0	 1.875000e+00
-9.750000e-01	 0	 2.625000e+00
-9.750000e-01	 0	 3
-9.750000e-01	 0	 1.500000e+00
-9.750000e-01	 0	 2.250000e+00
-9.625000e-01	 0	 1.500000e+00
-9.625000e-01	 0	 2.250000e+00
-9.625000e-01	 0	 0
-9.625000e-01	 0	 7.500000e-01
-9.625000e-01	 0	 3
-9.587227e-01	 -1.774140e-01	 0
-9.587227e-01	 -1.774140e-01	 3.000000e+00
-9.587227e-01	 -1.774140e-01	 1.500000e+00
-9.587227e-01	 1.774140e-01	 0
-9.587227e-01	 1.774140e-01	 3.000000e+00
-9.587227e-01	 1.774140e-01	 1.500000e+00
-9.587227e-01	 1.774140e-01	 7.500000e-01
-9.587227e-01	 -1.774140e-01	 7.500000e-01
-9.587227e-01	 -1.774140e-01	 2.250000e+00
-9.587227e-01	 1.774140e-01	 2.250000e+00
-9.500000e-01	 0	 0
-9.500000e-01	 0	 3.750000e-01
-9.500000e-01	 0	 1.125000e+00
-9.500000e-01	 0	 1.500000e+00
-9.500000e-01	 0	 1.875000e+00
-9.500000e-01	 0	 2.250000e+00
-9.500000e-01	 0	 2.625000e+00
-9.500000e-01	 0	 3
-9.500000e-01	 0	 7.500000e-01
-9.341401e-01	 -1.728649e-01	 1.500000e+00
-9.341401e-01	 -1.728649e-01	 0
-9.341401e-01	 -1.728649e-01	 3.000000e+00
-9.341401e-01	 1.728649e-01	 2.250000e+00
-9.341401e-01	 1.728649e-01	 0
-9.341401e-01	 1.728649e-01	 1.500000e+00
-9.341401e-01	 1.728649e-01	 3.000000e+00
-9.341401e-01	 -1.728649e-01	 7.500000e-01
-9.341401e-01	 -1.728649e-01	 2.250000e+00
-9.341401e-01	 1.728649e-01	 7.500000e-01
-9.297883e-01	 -3.680947e-01	 1.125000e+00
-9.297883e-01	 -3.680947e-01	 0
-9.297883e-01	 -3.680947e-01	 7.500000e-01
-9.297883e-01	 -3.680947e-01	 1.500000e+00
-9.297883e-01	 -3.680947e-01	 1.875000e+00
-9.297883e-01	 -3.680947e-01	 2.250000e+00
-9.297883e-01	 -3.680947e-01	 2.625000e+00
-9.297883e-01	 -3.680947e-01	 3.000000e+00
-9.297883e-01	 -3.680947e-01	 3.750000e-01
-9.297883e-01	 3.680947e-01	 3.750000e-01
-9.297883e-01	 3.680947e-01	 2.250000e+00
-9.297883e-01	 3.680947e-01	 2.625000e+00
-9.297883e-01	 3.680947e-01	 0
-9.297883e-01	 3.680947e-01	 7.500000e-01
-9.297883e-01	 3.680947e-01	 1.500000e+00
-9.297883e-01	 3.680947e-01	 1.875000e+00
-9.297883e-01	 3.680947e-01	 3.000000e+00
-9.297883e-01	 3.680947e-01	 1.125000e+00
-9.181659e-01	 3.634935e-01	 7.500000e-01
-9.181659e-01	 -3.634935e-01	 0
-9.181659e-01	 -3.634935e-01	 7.500000e-01
-9.181659e-01	 -3.634935e-01	 2.250000e+00
-9.181659e-01	 -3.634935e-01	 3
-9.181659e-01	 3.634935e-01	 0
-9.181659e-01	 3.634935e-01	 2.250000e+00
-9.181659e-01	 3.634935e-01	 3
-9.181659e-01	 -3.634935e-01	 1.500000e+00
-9.181659e-01	 3.634935e-01	 1.500000e+00
-9.065436e-01	 -3.588923e-01	 1.125000e+00
-9.065436e-01	 -3.588923e-01	 2.625000e+00
-9.065436e-01	 -3.588923e-01	 0
-9.065436e-01	 -3.588923e-01	 3.750000e-01
-9.065436e-01	 -3.588923e-01	 1.500000e+00
-9.065436e-01	 -3.588923e-01	 3
-9.065436e-01	 3.588923e-01	 2.625000e+00
-9.065436e-01	 3.588923e-01	 1.125000e+00
-9.065436e-01	 3.588923e-01	 0
-9.065436e-01	 3.588923e-01	 3.750000e-01
-9.065436e-01	 3.588923e-01	 3
-9.065436e-01	 -3.588923e-01	 7.500000e-01
-9.065436e-01	 -3.588923e-01	 1.875000e+00
-9.065436e-01	 3.588923e-01	 1.875000e+00
-9.065436e-01	 3.588923e-01	 1.500000e+00
-9.065436e-01	 -3.588923e-01	 2.250000e+00
-9.065436e-01	 3.588923e-01	 7.500000e-01
-9.065436e-01	 3.588923e-01	 2.250000e+00
-8.949212e-01	 3.542912e-01	 1.500000e+00
-8.949212e-01	 -3.542912e-01	 1.500000e+00
-8.949212e-01	 -3.542912e-01	 0
-8.949212e-01	 -3.542912e-01	 3.000000e+00
-8.949212e-01	 3.542912e-01	 0
-8.949212e-01	 3.542912e-01	 3.000000e+00
-8.949212e-01	 -3.542912e-01	 2.250000e+00
-8.949212e-01	 -3.542912e-01	 7.500000e-01
-8.949212e-01	 3.542912e-01	 2.250000e+00
-8.949212e-01	 3.542912e-01	 7.500000e-01
-8.832989e-01	 -3.496900e-01	 1.125000e+00
-8.832989e-01	 -3.496900e-01	 1.875000e+00
-8.832989e-01	 -3.496900e-01	 2.625000e+00
-8.832989e-01	 -3.496900e-01	 2.250000e+00
-8.832989e-01	 3.496900e-01	 1.125000e+00
-8.832989e-01	 -3.496900e-01	 0
-8.832989e-01	 -3.496900e-01	 3.000000e+00
-8.832989e-01	 -3.496900e-01	 3.750000e-01
-8.832989e-01	 -3.496900e-01	 7.500000e-01
-8.832989e-01	 3.496900e-01	 3.750000e-01
-8.832989e-01	 3.496900e-01	 7.500000e-01
-8.832989e-01	 3.496900e-01	 2.250000e+00
-8.832989e-01	 3.496900e-01	 2.625000e+00
-8.832989e-01	 3.496900e-01	 0
-8.832989e-01	 3.496900e-01	 1.875000e+00
-8.832989e-01	 3.496900e-01	 3.000000e+00
-8.832989e-01	 -3.496900e-01	 1.500000e+00
-8.832989e-01	 3.496900e-01	 1.500000e+00
-8.369955e-01	 -5.472098e-01	 0
-8.369955e-01	 -5.472098e-01	 7.500000e-01
-8.369955e-01	 -5.472098e-01	 1.500000e+00
-8.369955e-01	 -5.472098e-01	 2.250000e+00
-8.369955e-01	 -5.472098e-01	 3
-8.369955e-01	 5.472098e-01	 0
-8.369955e-01	 5.472098e-01	 7.500000e-01
-8.369955e-01	 5.472098e-01	 1.500000e+00
-8.369955e-01	 5.472098e-01	 2.250000e+00
-8.369955e-01	 5.472098e-01	 3
-8.160706e-01	 -5.335295e-01	 7.500000e-01
-8.160706e-01	 5.335295e-01	 7.500000e-01
-8.160706e-01	 -5.335295e-01	 1.500000e+00
-8.160706e-01	 -5.335295e-01	 2.250000e+00
-8.160706e-01	 5.335295e-01	 1.500000e+00
-8.160706e-01	 5.335295e-01	 2.250000e+00
-8.160706e-01	 -5.335295e-01	 0
-8.160706e-01	 -5.335295e-01	 3.000000e+00
-8.160706e-01	 5.335295e-01	 0
-8.160706e-01	 5.335295e-01	 3.000000e+00
-7.951457e-01	 -5.198493e-01	 7.500000e-01
-7.951457e-01	 5.198493e-01	 7.500000e-01
-7.951457e-01	 -5.198493e-01	 0
-7.951457e-01	 -5.198493e-01	 1.500000e+00
-7.951457e-01	 -5.198493e-01	 2.250000e+00
-7.951457e-01	 -5.198493e-01	 3
-7.951457e-01	 5.198493e-01	 0
-7.951457e-01	 5.198493e-01	 1.500000e+00
-7.951457e-01	 5.198493e-01	 2.250000e+00
-7.951457e-01	 5.198493e-01	 3
-7.071068e-01	 -7.071068e-01	 0
-7.071068e-01	 -7.071068e-01	 3.750000e-01
-7.071068e-01	 -7.071068e-01	 7.500000e-01
-7.071068e-01	 -7.071068e-01	 1.125000e+00
-7.071068e-01	 -7.071068e-01	 1.500000e+00
-7.071068e-01	 -7.071068e-01	 1.875000e+00
-7.071068e-01	 -7.071068e-01	 2.250000e+00
-7.071068e-01	 -7.071068e-01	 2.625000e+00
-7.071068e-01	 -7.071068e-01	 3.000000e+00
-7.071068e-01	 7.071068e-01	 0
-7.071068e-01	 7.071068e-01	 3.750000e-01
-7.071068e-01	 7.071068e-01	 7.500000e-01
-7.071068e-01	 7.071068e-01	 1.125000e+00
-7.071068e-01	 7.071068e-01	 1.500000e+00
-7.071068e-01	 7.071068e-01	 1.875000e+00
-7.071068e-01	 7.071068e-01	 2.250000e+00
-7.071068e-01	 7.071068e-01	 2.625000e+00
-7.071068e-01	 7.071068e-01	 3.000000e+00
-6.982679e-01	 -6.982679e-01	 7.500000e-01
-6.982679e-01	 6.982679e-01	 7.500000e-01
-6.982679e-01	 -6.982679e-01	 0
-6.982679e-01	 -6.982679e-01	 2.250000e+00
-6.982679e-01	 -6.982679e-01	 3.000000e+00
-6.982679e-01	 6.982679e-01	 0
-6.982679e-01	 6.982679e-01	 2.250000e+00
-6.982679e-01	 6.982679e-01	 3.000000e+00
-6.982679e-01	 -6.982679e-01	 1.500000e+00
-6.982679e-01	 6.982679e-01	 1.500000e+00
-6.894291e-01	 -6.894291e-01	 3.750000e-01
-6.894291e-01	 -6.894291e-01	 2.625000e+00
-6.894291e-01	 -6.894291e-01	 0
-6.894291e-01	 -6.894291e-01	 1.500000e+00
-6.894291e-01	 -6.894291e-01	 2.250000e+00
-6.894291e-01	 -6.894291e-01	 3.000000e+00
-6.894291e-01	 6.894291e-01	 3.750000e-01
-6.894291e-01	 6.894291e-01	 2.625000e+00
-6.894291e-01	 -6.894291e-01	 1.875000e+00
-6.894291e-01	 6.894291e-01	 1.875000e+00
-6.894291e-01	 -6.894291e-01	 7.500000e-01
-6.894291e-01	 -6.894291e-01	 1.125000e+00
-6.894291e-01	 6.894291e-01	 0
-6.894291e-01	 6.894291e-01	 1.500000e+00
-6.894291e-01	 6.894291e-01	 2.250000e+00
-6.894291e-01	 6.894291e-01	 3.000000e+00
-6.894291e-01	 6.894291e-01	 7.500000e-01
-6.894291e-01	 6.894291e-01	 1.125000e+00
-6.805903e-01	 6.805903e-01	 7.500000e-01
-6.805903e-01	 -6.805903e-01	 7.500000e-01
-6.805903e-01	 -6.805903e-01	 0
-6.805903e-01	 -6.805903e-01	 1.500000e+00
-6.805903e-01	 -6.805903e-01	 3.000000e+00
-6.805903e-01	 6.805903e-01	 0
-6.805903e-01	 6.805903e-01	 1.500000e+00
-6.805903e-01	 6.805903e-01	 3.000000e+00
-6.805903e-01	 6.805903e-01	 2.250000e+00
-6.805903e-01	 -6.805903e-01	 2.250000e+00
-6.717514e-01	 -6.717514e-01	 2.625000e+00
-6.717514e-01	 6.717514e-01	 2.625000e+00
-6.717514e-01	 -6.717514e-01	 0
-6.717514e-01	 -6.717514e-01	 3.750000e-01
-6.717514e-01	 -6.717514e-01	 7.500000e-01
-6.717514e-01	 -6.717514e-01	 1.125000e+00
-6.717514e-01	 -6.717514e-01	 1.875000e+00
-6.717514e-01	 -6.717514e-01	 3.000000e+00
-6.717514e-01	 -6.717514e-01	 2.250000e+00
-6.717514e-01	 6.717514e-01	 1.500000e+00
-6.717514e-01	 6.717514e-01	 0
-6.717514e-01	 6.717514e-01	 3.750000e-01
-6.717514e-01	 6.717514e-01	 7.500000e-01
-6.717514e-01	 6.717514e-01	 1.125000e+00
-6.717514e-01	 6.717514e-01	 1.875000e+00
-6.717514e-01	 6.717514e-01	 3.000000e+00
-6.717514e-01	 -6.717514e-01	 1.500000e+00
-6.717514e-01	 6.717514e-01	 2.250000e+00
-5.472098e-01	 -8.369955e-01	 0
-5.472098e-01	 -8.369955e-01	 7.500000e-01
-5.472098e-01	 -8.369955e-01	 1.500000e+00
-5.472098e-01	 -8.369955e-01	 2.250000e+00
-5.472098e-01	 -8.369955e-01	 3
-5.472098e-01	 8.369955e-01	 0
-5.472098e-01	 8.369955e-01	 7.500000e-01
-5.472098e-01	 8.369955e-01	 1.500000e+00
-5.472098e-01	 8.369955e-01	 2.250000e+00
-5.472098e-01	 8.369955e-01	 3
-5.335295e-01	 -8.160706e-01	 1.500000e+00
-5.335295e-01	 -8.160706e-01	 2.250000e+00
-5.335295e-01	 8.160706e-01	 0
-5.335295e-01	 8.160706e-01	 3.000000e+00
[...]
POINT_DATA 832
VECTORS displacement float
0	 0	 -2.144704e-07
-4.571132e-07	 -1.907004e-13	 -1.966080e-07
-8.398803e-07	 -3.844990e-13	 -1.516535e-07
-1.103569e-06	 -5.658118e-13	 -8.143772e-08
-1.187770e-06	 -6.967291e-13	 -3.354973e-14
-1.103569e-06	 -7.150036e-13	 8.143767e-08
-8.398807e-07	 -6.008759e-13	 1.516535e-07
-4.571135e-07	 -3.399109e-13	 1.966080e-07
0	 0	 2.144705e-07
0	 0	 -1.981470e-07
-1.189669e-06	 -7.511393e-13	 -2.718471e-14
0	 0	 1.981470e-07
-8.412231e-07	 -6.540102e-13	 1.401111e-07
-8.412227e-07	 -4.083168e-13	 -1.401111e-07
-7.960816e-07	 -3.515388e-09	 -1.422716e-07
0	 0	 -2.012024e-07
-1.125830e-06	 -4.971695e-09	 -6.519758e-14
0	 0	 2.012025e-07
-7.960809e-07	 3.514305e-09	 1.422714e-07
0	 0	 -2.012022e-07
-1.125828e-06	 4.970148e-09	 4.541703e-15
0	 0	 2.012022e-07
-7.960810e-07	 3.514546e-09	 -1.422714e-07
-7.960823e-07	 -3.515650e-09	 1.422716e-07
-8.422917e-07	 -4.321103e-13	 -1.285831e-07
-1.106445e-06	 -6.451723e-13	 -6.980170e-08
0	 0	 -1.818439e-07
-4.583046e-07	 -2.108398e-13	 -1.685162e-07
-1.106446e-06	 -8.378695e-13	 6.980167e-08
-4.583049e-07	 -4.035605e-13	 1.685162e-07
0	 0	 1.818439e-07
-1.191181e-06	 -8.054389e-13	 -2.084508e-14
-8.422921e-07	 -7.070123e-13	 1.285831e-07
-1.192424e-06	 -8.592129e-13	 -1.449290e-14
-8.431716e-07	 -7.594610e-13	 1.170407e-07
0	 0	 -1.655205e-07
-8.431712e-07	 -4.557137e-13	 -1.170407e-07
0	 0	 1.655205e-07
0	 0	 -1.708814e-07
0	 0	 1.708814e-07
-1.130852e-06	 1.158875e-08	 -4.106310e-14
0	 0	 -1.708812e-07
0	 0	 1.708812e-07
-1.130851e-06	 -1.159047e-08	 2.576012e-15
-7.996321e-07	 -8.195552e-09	 -1.208313e-07
-7.996327e-07	 8.194634e-09	 -1.208314e-07
-7.996334e-07	 8.194338e-09	 1.208314e-07
-7.996321e-07	 -8.195849e-09	 1.208313e-07
0	 0	 -1.491523e-07
-4.589409e-07	 -2.307800e-13	 -1.403575e-07
-1.107982e-06	 -7.239172e-13	 -5.813798e-08
-1.193238e-06	 -9.132977e-13	 -8.097300e-15
-1.107982e-06	 -9.599296e-13	 5.813796e-08
-8.437466e-07	 -8.122837e-13	 1.054666e-07
-4.589412e-07	 -4.668205e-13	 1.403575e-07
0	 0	 1.491524e-07
-8.437462e-07	 -4.793829e-13	 -1.054666e-07
-1.134670e-06	 2.848972e-08	 -1.689055e-14
0	 0	 -1.405374e-07
0	 0	 1.405375e-07
-8.023322e-07	 -2.014679e-08	 9.937489e-08
0	 0	 -1.405373e-07
-1.134669e-06	 -2.849161e-08	 6.016116e-16
0	 0	 1.405373e-07
-8.023328e-07	 2.014544e-08	 -9.937499e-08
-8.023335e-07	 2.014511e-08	 9.937499e-08
-8.023322e-07	 -2.014643e-08	 -9.937489e-08
-8.667941e-07	 3.555151e-08	 -5.909053e-08
0	 0	 -1.555899e-07
-6.605307e-07	 2.951646e-08	 -1.100187e-07
-9.341321e-07	 4.174234e-08	 -7.718945e-14
-8.667948e-07	 3.555126e-08	 5.909043e-08
-6.605316e-07	 2.951613e-08	 1.100187e-07
-3.590383e-07	 1.472574e-08	 1.426571e-07
0	 0	 1.555900e-07
-3.590377e-07	 1.472599e-08	 -1.426570e-07
-3.590372e-07	 -1.472646e-08	 -1.426567e-07
-6.605292e-07	 -2.951782e-08	 1.100184e-07
-3.590369e-07	 -1.472673e-08	 1.426566e-07
0	 0	 -1.555896e-07
-6.605296e-07	 -2.951746e-08	 -1.100184e-07
-9.341296e-07	 -4.174425e-08	 4.196757e-14
-8.667919e-07	 -3.555328e-08	 5.909035e-08
0	 0	 1.555895e-07
-8.667923e-07	 -3.555301e-08	 -5.909029e-08
-6.656237e-07	 -3.986998e-08	 -1.017190e-07
0	 0	 -1.438527e-07
-6.656248e-07	 3.986895e-08	 -1.017193e-07
-6.656257e-07	 3.986862e-08	 1.017193e-07
0	 0	 1.438529e-07
0	 0	 -1.438525e-07
-6.656233e-07	 -3.987037e-08	 1.017190e-07
0	 0	 1.438524e-07
-9.413362e-07	 5.638298e-08	 -6.250234e-14
-9.413337e-07	 -5.638494e-08	 3.382700e-14
-8.797700e-07	 6.291134e-08	 -5.072458e-08
-3.644131e-07	 2.605855e-08	 1.224599e-07
0	 0	 -1.321260e-07
-3.644125e-07	 2.605881e-08	 -1.224598e-07
-9.483185e-07	 7.110135e-08	 -4.787859e-14
0	 0	 1.321261e-07
-3.644117e-07	 -2.605960e-08	 1.224595e-07
-8.797681e-07	 -6.291294e-08	 -5.072439e-08
0	 0	 -1.321257e-07
-3.644120e-07	 -2.605930e-08	 -1.224596e-07
0	 0	 1.321257e-07
-6.705620e-07	 5.027641e-08	 -9.342721e-08
-8.797706e-07	 6.291109e-08	 5.072451e-08
-8.797678e-07	 -6.291324e-08	 5.072443e-08
-9.483160e-07	 -7.110336e-08	 2.572648e-14
-6.705629e-07	 5.027608e-08	 9.342721e-08
-6.705609e-07	 -5.027746e-08	 -9.342697e-08
-6.705605e-07	 -5.027788e-08	 9.342697e-08
-9.551221e-07	 -8.576947e-08	 1.762119e-14
-9.551246e-07	 8.576739e-08	 -3.323528e-14
0	 0	 -1.203832e-07
0	 0	 1.203832e-07
0	 0	 -1.203829e-07
0	 0	 1.203829e-07
-6.753755e-07	 6.064653e-08	 8.512376e-08
-6.753746e-07	 6.064687e-08	 -8.512377e-08
-6.753731e-07	 -6.064839e-08	 8.512355e-08
-6.753735e-07	 -6.064795e-08	 -8.512356e-08
-8.919609e-07	 9.044245e-08	 -4.233620e-08
-8.919615e-07	 9.044219e-08	 4.233616e-08
-3.694628e-07	 3.746231e-08	 1.022086e-07
-6.800362e-07	 7.113499e-08	 7.679905e-08
-8.919591e-07	 -9.044413e-08	 -4.233607e-08
0	 0	 -1.086102e-07
0	 0	 1.086103e-07
-3.694621e-07	 3.746256e-08	 -1.022086e-07
-6.800354e-07	 7.113533e-08	 -7.679905e-08
-3.694616e-07	 -3.746309e-08	 -1.022083e-07
-6.800343e-07	 -7.113644e-08	 -7.679887e-08
-6.800339e-07	 -7.113690e-08	 7.679887e-08
-3.694613e-07	 -3.746342e-08	 1.022083e-07
0	 0	 -1.086100e-07
-8.919588e-07	 -9.044446e-08	 4.233609e-08
0	 0	 1.086100e-07
-9.617158e-07	 1.006003e-07	 -1.848751e-14
-9.617134e-07	 -1.006024e-07	 9.456508e-15
0	 0	 -8.612436e-08
-4.751242e-07	 1.209500e-07	 -6.089917e-08
-6.719276e-07	 1.710489e-07	 -6.953026e-14
-4.751250e-07	 1.209497e-07	 6.089917e-08
0	 0	 8.612450e-08
0	 0	 -8.612398e-08
-4.751228e-07	 -1.209511e-07	 -6.089880e-08
-6.719247e-07	 -1.710511e-07	 6.832599e-14
-4.751222e-07	 -1.209517e-07	 6.089880e-08
0	 0	 8.612384e-08
-4.910945e-07	 1.443401e-07	 -5.183060e-08
-4.910931e-07	 -1.443413e-07	 -5.183031e-08
-6.945130e-07	 2.041276e-07	 -4.420244e-14
-4.910953e-07	 1.443398e-07	 5.183060e-08
-6.945101e-07	 -2.041298e-07	 4.311779e-14
-4.910925e-07	 -1.443418e-07	 5.183031e-08
0	 0	 -7.329949e-08
0	 0	 7.329958e-08
0	 0	 -7.329917e-08
0	 0	 7.329908e-08
-5.068668e-07	 1.680611e-07	 -4.275649e-08
-5.068654e-07	 -1.680623e-07	 -4.275627e-08
0	 0	 -6.046679e-08
-7.168184e-07	 2.376741e-07	 -1.885227e-14
-5.068676e-07	 1.680608e-07	 4.275649e-08
0	 0	 6.046683e-08
0	 0	 -6.046651e-08
-7.168155e-07	 -2.376763e-07	 1.788288e-14
-5.068648e-07	 -1.680628e-07	 4.275627e-08
0	 0	 6.046648e-08
0	 0	 -3.226553e-13
-1.504751e-07	 1.504738e-07	 -3.036759e-13
-2.790970e-07	 2.790945e-07	 -2.508299e-13
-3.632792e-07	 3.632757e-07	 -1.556817e-13
-3.947030e-07	 3.946991e-07	 -3.233810e-14
-3.632795e-07	 3.632757e-07	 1.128191e-13
-2.790974e-07	 2.790944e-07	 2.497931e-13
-1.504754e-07	 1.504737e-07	 3.444872e-13
0	 0	 3.853071e-13
0	 0	 3.466366e-14
-1.504745e-07	 -1.504743e-07	 4.946518e-14
-2.790957e-07	 -2.790956e-07	 7.152409e-14
-3.632773e-07	 -3.632773e-07	 8.181821e-14
-3.947005e-07	 -3.947011e-07	 6.625407e-14
-3.632768e-07	 -3.632778e-07	 4.300781e-15
-2.790951e-07	 -2.790961e-07	 -7.265855e-14
-1.504740e-07	 -1.504747e-07	 -1.378492e-13
0	 0	 -1.694321e-13
-2.905787e-07	 2.905762e-07	 -2.240108e-13
-2.905774e-07	 -2.905773e-07	 6.756399e-14
0	 0	 -2.908506e-13
-2.905792e-07	 2.905761e-07	 2.229790e-13
0	 0	 3.412734e-13
0	 0	 4.179506e-14
-2.905768e-07	 -2.905778e-07	 -6.869855e-14
0	 0	 -1.510312e-13
-4.109407e-07	 4.109367e-07	 -2.622857e-14
-4.109381e-07	 -4.109387e-07	 5.348798e-14
-1.629435e-07	 1.629422e-07	 -2.449919e-13
-1.629439e-07	 1.629422e-07	 2.715854e-13
0	 0	 -2.591361e-13
-4.271715e-07	 4.271676e-07	 -2.015454e-14
-3.020561e-07	 3.020531e-07	 1.962537e-13
0	 0	 2.974008e-13
-1.629429e-07	 -1.629427e-07	 5.426482e-14
-1.629425e-07	 -1.629431e-07	 -1.138766e-13
-3.933811e-07	 3.933772e-07	 9.266528e-14
-3.933782e-07	 -3.933792e-07	 -6.131252e-15
-3.020556e-07	 3.020531e-07	 -1.972805e-13
-3.933807e-07	 3.933772e-07	 -1.213102e-13
0	 0	 4.885451e-14
-4.271689e-07	 -4.271695e-07	 4.078284e-14
-3.020537e-07	 -3.020547e-07	 -6.473059e-14
0	 0	 -1.326802e-13
-3.020543e-07	 -3.020542e-07	 6.359592e-14
-3.933787e-07	 -3.933788e-07	 6.347792e-14
-3.134643e-07	 -3.134641e-07	 5.962429e-14
-3.134655e-07	 3.134630e-07	 -1.705195e-13
0	 0	 -2.273830e-13
-4.433076e-07	 4.433037e-07	 -1.407559e-14
0	 0	 2.534799e-13
0	 0	 5.592099e-14
-4.433050e-07	 -4.433055e-07	 2.806556e-14
0	 0	 -1.143120e-13
-3.134636e-07	 -3.134646e-07	 -6.075904e-14
-3.134661e-07	 3.134630e-07	 1.694977e-13
-1.753670e-07	 1.753653e-07	 1.985126e-13
-1.753655e-07	 -1.753662e-07	 -8.982664e-14
0	 0	 -1.955146e-13
-1.753666e-07	 1.753653e-07	 -1.861869e-13
-3.249173e-07	 3.249148e-07	 -1.436406e-13
-4.233727e-07	 4.233692e-07	 -8.685319e-14
-4.233731e-07	 4.233692e-07	 7.247598e-14
0	 0	 2.093411e-13
-3.249178e-07	 3.249148e-07	 1.426239e-13
-4.595001e-07	 -4.595007e-07	 1.525232e-14
0	 0	 6.307991e-14
-1.753660e-07	 -1.753658e-07	 5.909214e-14
-3.249160e-07	 -3.249158e-07	 5.565043e-14
-4.233706e-07	 -4.233707e-07	 4.507494e-14
-4.233702e-07	 -4.233711e-07	 -1.660555e-14
0	 0	 -9.584427e-14
-4.595028e-07	 4.594989e-07	 -7.945438e-15
-3.249153e-07	 -3.249163e-07	 -5.678525e-14
0	 0	 8.612381e-08
-1.209521e-07	 4.751220e-07	 6.089874e-08
-1.710522e-07	 6.719242e-07	 1.570900e-14
-1.209522e-07	 4.751223e-07	 -6.089874e-08
0	 0	 -8.612384e-08
0	 0	 8.612406e-08
-1.209512e-07	 -4.751227e-07	 6.089894e-08
-1.710505e-07	 -6.719253e-07	 4.402268e-14
-1.209507e-07	 -4.751231e-07	 -6.089894e-08
0	 0	 -8.612415e-08
-2.041311e-07	 6.945097e-07	 9.858608e-15
-1.443425e-07	 4.910927e-07	 -5.183026e-08
0	 0	 7.329927e-08
0	 0	 -7.329933e-08
-2.041292e-07	 -6.945107e-07	 2.740590e-14
-1.443409e-07	 -4.910934e-07	 -5.183043e-08
-1.443424e-07	 4.910924e-07	 5.183026e-08
0	 0	 7.329905e-08
0	 0	 -7.329907e-08
-1.443414e-07	 -4.910931e-07	 5.183043e-08
-1.680624e-07	 -5.068654e-07	 4.275638e-08
-1.680634e-07	 5.068647e-07	 4.275624e-08
0	 0	 6.046645e-08
-2.376777e-07	 7.168152e-07	 3.999345e-15
-1.680637e-07	 5.068651e-07	 -4.275624e-08
0	 0	 -6.046646e-08
0	 0	 6.046664e-08
-2.376757e-07	 -7.168161e-07	 1.077234e-14
-1.680619e-07	 -5.068657e-07	 -4.275638e-08
0	 0	 -6.046666e-08
-3.555340e-08	 8.667928e-07	 5.909041e-08
-3.555263e-08	 -8.667927e-07	 5.909039e-08
0	 0	 1.555896e-07
-2.951785e-08	 6.605298e-07	 1.100185e-07
-4.174449e-08	 9.341307e-07	 6.031776e-14
-3.555333e-08	 8.667934e-07	 -5.909033e-08
0	 0	 -1.555897e-07
0	 0	 1.555897e-07
-2.951730e-08	 -6.605299e-07	 1.100185e-07
-4.174361e-08	 -9.341303e-07	 6.490281e-16
-3.555248e-08	 -8.667927e-07	 -5.909039e-08
-2.951708e-08	 -6.605298e-07	 -1.100185e-07
-1.472627e-08	 -3.590373e-07	 -1.426568e-07
0	 0	 -1.555897e-07
-1.472672e-08	 3.590372e-07	 1.426567e-07
-2.951777e-08	 6.605305e-07	 -1.100185e-07
-1.472665e-08	 3.590377e-07	 -1.426568e-07
-1.472643e-08	 -3.590373e-07	 1.426568e-07
-5.638530e-08	 9.413349e-07	 4.869368e-14
-5.638430e-08	 -9.413344e-07	 2.494231e-16
-3.987045e-08	 6.656239e-07	 1.017191e-07
0	 0	 1.438525e-07
-3.987040e-08	 6.656246e-07	 -1.017191e-07
0	 0	 -1.438526e-07
0	 0	 1.438526e-07
-3.986985e-08	 -6.656240e-07	 1.017191e-07
-3.986960e-08	 -6.656239e-07	 -1.017191e-07
0	 0	 -1.438526e-07
-5.027800e-08	 6.705619e-07	 -9.342704e-08
-5.027708e-08	 -6.705611e-07	 -9.342708e-08
-6.291260e-08	 -8.797686e-07	 5.072447e-08
-2.605911e-08	 -3.644121e-07	 -1.224597e-07
0	 0	 1.321257e-07
-2.605965e-08	 3.644120e-07	 1.224596e-07
0	 0	 -1.321258e-07
-7.110384e-08	 9.483172e-07	 3.711164e-14
0	 0	 1.321258e-07
-2.605931e-08	 -3.644121e-07	 1.224597e-07
-7.110273e-08	 -9.483167e-07	 -1.351394e-16
0	 0	 -1.321258e-07
-6.291354e-08	 8.797688e-07	 5.072448e-08
-6.291350e-08	 8.797694e-07	 -5.072442e-08
-5.027802e-08	 6.705611e-07	 9.342704e-08
-5.027737e-08	 -6.705612e-07	 9.342707e-08
-6.291240e-08	 -8.797686e-07	 -5.072447e-08
-2.605962e-08	 3.644126e-07	 -1.224597e-07
-8.577006e-08	 9.551234e-07	 2.550616e-14
-6.064859e-08	 6.753746e-07	 -8.512362e-08
-6.064757e-08	 -6.753738e-07	 -8.512366e-08
0	 0	 1.203830e-07
0	 0	 -1.203830e-07
-8.576884e-08	 -9.551228e-07	 -5.118721e-16
0	 0	 1.203829e-07
0	 0	 -1.203830e-07
-6.064859e-08	 6.753738e-07	 8.512362e-08
-6.064789e-08	 -6.753739e-07	 8.512365e-08
-9.044494e-08	 8.919598e-07	 4.233612e-08
0	 0	 1.086101e-07
-9.044495e-08	 8.919604e-07	 -4.233609e-08
0	 0	 -1.086101e-07
-1.006032e-07	 9.617147e-07	 1.382215e-14
0	 0	 1.086101e-07
0	 0	 -1.086101e-07
-9.044384e-08	 -8.919596e-07	 4.233613e-08
-9.044360e-08	 -8.919595e-07	 -4.233613e-08
-3.746289e-08	 -3.694617e-07	 -1.022085e-07
-3.746352e-08	 3.694617e-07	 1.022084e-07
-7.113716e-08	 6.800346e-07	 7.679892e-08
-7.113719e-08	 6.800354e-07	 -7.679892e-08
-3.746353e-08	 3.694623e-07	 -1.022084e-07
-1.006018e-07	 -9.617141e-07	 -9.016467e-16
-3.746314e-08	 -3.694618e-07	 1.022085e-07
-7.113605e-08	 -6.800345e-07	 -7.679896e-08
-7.113641e-08	 -6.800346e-07	 7.679896e-08
3.514458e-09	 7.960823e-07	 1.422716e-07
3.514828e-09	 -7.960817e-07	 1.422715e-07
0	 0	 2.012024e-07
4.970299e-09	 1.125831e-06	 8.939557e-14
0	 0	 -2.012026e-07
0	 0	 2.012024e-07
4.970773e-09	 -1.125829e-06	 -4.334521e-14
0	 0	 -2.012023e-07
3.514607e-09	 7.960834e-07	 -1.422716e-07
3.514907e-09	 -7.960812e-07	 -1.422715e-07
-8.195769e-09	 7.996334e-07	 1.208314e-07
0	 0	 1.708814e-07
0	 0	 -1.708815e-07
-8.195319e-09	 -7.996328e-07	 1.208313e-07
-8.195183e-09	 -7.996323e-07	 -1.208313e-07
0	 0	 1.708814e-07
0	 0	 -1.708813e-07
-8.195641e-09	 7.996346e-07	 -1.208314e-07
-1.158984e-08	 -1.130851e-06	 -2.780665e-14
-1.159048e-08	 1.130853e-06	 5.586247e-14
-2.849096e-08	 -1.134670e-06	 -1.226658e-14
0	 0	 1.405375e-07
-2.849178e-08	 1.134672e-06	 2.229695e-14
0	 0	 -1.405375e-07
0	 0	 1.405374e-07
0	 0	 -1.405374e-07
-2.014667e-08	 8.023347e-07	 -9.937501e-08
-2.014678e-08	 8.023336e-07	 9.937501e-08
-2.014625e-08	 -8.023329e-07	 9.937496e-08
-2.014606e-08	 -8.023324e-07	 -9.937496e-08
0	 0	 2.144707e-07
-2.543188e-13	 4.571143e-07	 1.966083e-07
-4.580536e-13	 8.398824e-07	 1.516538e-07
-5.631197e-13	 1.103572e-06	 8.143789e-08
-5.743111e-13	 1.187774e-06	 8.552007e-14
-4.912047e-13	 1.103573e-06	 -8.143778e-08
-3.541611e-13	 8.398835e-07	 -1.516538e-07
-1.824107e-13	 4.571151e-07	 -1.966084e-07
0	 0	 -2.144709e-07
0	 0	 1.981473e-07
-6.495712e-13	 1.189672e-06	 6.885699e-14
0	 0	 -1.981474e-07
-4.015717e-13	 8.412258e-07	 -1.401113e-07
-5.170431e-13	 8.412248e-07	 1.401113e-07
-5.757786e-13	 8.422938e-07	 1.285833e-07
-7.108957e-13	 1.106448e-06	 6.980183e-08
0	 0	 1.818442e-07
-3.204849e-13	 4.583057e-07	 1.685164e-07
-6.219834e-13	 1.106449e-06	 -6.980176e-08
-2.315826e-13	 4.583065e-07	 -1.685165e-07
0	 0	 -1.818443e-07
-7.245087e-13	 1.191184e-06	 5.228383e-14
-4.487810e-13	 8.422949e-07	 -1.285833e-07
-7.987476e-13	 1.192428e-06	 3.567834e-14
-4.955574e-13	 8.431743e-07	 -1.170408e-07
0	 0	 1.655207e-07
-6.339592e-13	 8.431732e-07	 1.170408e-07
0	 0	 -1.655208e-07
0	 0	 1.491525e-07
-3.862016e-13	 4.589420e-07	 1.403576e-07
-8.576299e-13	 1.107985e-06	 5.813806e-08
-8.735069e-13	 1.193241e-06	 1.894146e-14
-7.517808e-13	 1.107985e-06	 -5.813803e-08
-5.426419e-13	 8.437494e-07	 -1.054668e-07
-2.803659e-13	 4.589428e-07	 -1.403577e-07
0	 0	 -1.491526e-07
-6.925672e-13	 8.437483e-07	 1.054668e-07
-2.529852e-13	 -8.437472e-07	 1.054667e-07
0	 0	 1.491524e-07
-1.485589e-13	 -4.589416e-07	 1.403575e-07
-2.853203e-13	 -1.107983e-06	 5.813797e-08
-2.534698e-13	 -1.193238e-06	 -1.649091e-14
-1.813277e-13	 -1.107982e-06	 -5.813800e-08
-1.053375e-13	 -8.437464e-07	 -1.054667e-07
-4.459030e-14	 -4.589410e-07	 -1.403575e-07
0	 0	 -1.491524e-07
0	 0	 1.655206e-07
-2.187165e-13	 -8.431722e-07	 1.170407e-07
0	 0	 -1.655205e-07
-2.172234e-13	 -1.192425e-06	 -2.984941e-14
-8.834028e-14	 -8.431713e-07	 -1.170407e-07
-1.812079e-13	 -1.191181e-06	 -4.309852e-14
-7.140072e-14	 -8.422919e-07	 -1.285831e-07
0	 0	 1.818440e-07
-1.084207e-13	 -4.583053e-07	 1.685163e-07
-1.263896e-13	 -1.106446e-06	 -6.980174e-08
-2.903673e-14	 -4.583046e-07	 -1.685162e-07
0	 0	 -1.818439e-07
-1.847170e-13	 -8.422927e-07	 1.285831e-07
-2.057971e-13	 -1.106446e-06	 6.980168e-08
-1.503412e-13	 -8.412237e-07	 1.401112e-07
-5.426141e-14	 -8.412228e-07	 -1.401112e-07
0	 0	 1.981471e-07
-1.447850e-13	 -1.189669e-06	 -5.632244e-14
0	 0	 -1.981470e-07
0	 0	 2.144706e-07
-6.797950e-14	 -4.571139e-07	 1.966081e-07
-1.158139e-13	 -8.398813e-07	 1.516536e-07
-1.256280e-13	 -1.103570e-06	 8.143768e-08
-1.082506e-13	 -1.187771e-06	 -6.962632e-14
-7.092642e-14	 -1.103569e-06	 -8.143777e-08
-3.711565e-14	 -8.398805e-07	 -1.516536e-07
-1.330088e-14	 -4.571132e-07	 -1.966080e-07
0	 0	 -2.144705e-07
2.014535e-08	 8.023350e-07	 9.937511e-08
2.014555e-08	 8.023358e-07	 -9.937511e-08
2.014572e-08	 -8.023338e-07	 9.937499e-08
2.014582e-08	 -8.023328e-07	 -9.937499e-08
0	 0	 1.405376e-07
0	 0	 -1.405376e-07
0	 0	 1.405375e-07
2.849043e-08	 -1.134671e-06	 -2.048396e-14
0	 0	 -1.405374e-07
2.848997e-08	 1.134674e-06	 1.541029e-14
1.158941e-08	 -1.130852e-06	 -4.939159e-14
1.158889e-08	 1.130855e-06	 3.850526e-14
8.195005e-09	 -7.996327e-07	 -1.208314e-07
0	 0	 1.708816e-07
0	 0	 -1.708817e-07
8.194511e-09	 7.996349e-07	 1.208316e-07
8.194655e-09	 7.996357e-07	 -1.208316e-07
0	 0	 1.708815e-07
0	 0	 -1.708814e-07
8.194889e-09	 -7.996337e-07	 1.208314e-07
-3.515458e-09	 7.960846e-07	 -1.422718e-07
-3.515032e-09	 -7.960816e-07	 -1.422716e-07
0	 0	 2.012027e-07
-4.971671e-09	 1.125833e-06	 6.158979e-14
0	 0	 -2.012028e-07
0	 0	 2.012025e-07
-4.971095e-09	 -1.125830e-06	 -7.828745e-14
0	 0	 -2.012023e-07
-3.515546e-09	 7.960838e-07	 1.422718e-07
-3.515159e-09	 -7.960826e-07	 1.422716e-07
7.113553e-08	 6.800370e-07	 7.679909e-08
7.113592e-08	 6.800373e-07	 -7.679909e-08
3.746260e-08	 3.694630e-07	 1.022086e-07
1.006011e-07	 9.617178e-07	 2.423142e-15
3.746276e-08	 -3.694626e-07	 1.022085e-07
7.113577e-08	 -6.800360e-07	 7.679901e-08
7.113574e-08	 -6.800353e-07	 -7.679901e-08
3.746275e-08	 -3.694621e-07	 -1.022085e-07
9.044291e-08	 8.919629e-07	 4.233621e-08
9.044318e-08	 8.919631e-07	 -4.233620e-08
3.746287e-08	 3.694633e-07	 -1.022086e-07
0	 0	 1.086103e-07
0	 0	 -1.086103e-07
1.006012e-07	 -9.617156e-07	 -1.290382e-14
0	 0	 1.086102e-07
9.044309e-08	 -8.919607e-07	 -4.233617e-08
0	 0	 -1.086102e-07
9.044310e-08	 -8.919613e-07	 4.233615e-08
6.064701e-08	 6.753762e-07	 8.512383e-08
6.064728e-08	 -6.753753e-07	 8.512372e-08
0	 0	 1.203831e-07
0	 0	 -1.203831e-07
8.576807e-08	 9.551264e-07	 4.905711e-15
0	 0	 1.203833e-07
0	 0	 -1.203833e-07
6.064736e-08	 6.753765e-07	 -8.512383e-08
6.064728e-08	 -6.753746e-07	 -8.512372e-08
8.576820e-08	 -9.551244e-07	 -2.313465e-14
2.605899e-08	 -3.644124e-07	 -1.224598e-07
5.027649e-08	 6.705636e-07	 9.342728e-08
6.291183e-08	 8.797721e-07	 -5.072458e-08
5.027678e-08	 -6.705626e-07	 9.342716e-08
6.291195e-08	 -8.797698e-07	 -5.072454e-08
6.291192e-08	 -8.797703e-07	 5.072449e-08
0	 0	 1.321261e-07
2.605878e-08	 3.644134e-07	 1.224600e-07
7.110191e-08	 9.483203e-07	 7.373811e-15
0	 0	 -1.321261e-07
7.110212e-08	 -9.483182e-07	 -3.328308e-14
0	 0	 1.321260e-07
2.605896e-08	 -3.644130e-07	 1.224598e-07
0	 0	 -1.321259e-07
6.291162e-08	 8.797719e-07	 5.072459e-08
2.605900e-08	 3.644136e-07	 -1.224600e-07
5.027680e-08	 6.705639e-07	 -9.342728e-08
5.027681e-08	 -6.705619e-07	 -9.342716e-08
0	 0	 1.438529e-07
3.986897e-08	 6.656263e-07	 1.017194e-07
3.986924e-08	 6.656266e-07	 -1.017194e-07
0	 0	 -1.438529e-07
0	 0	 1.438528e-07
3.986934e-08	 -6.656247e-07	 -1.017192e-07
0	 0	 -1.438527e-07
3.986929e-08	 -6.656254e-07	 1.017192e-07
5.638343e-08	 9.413380e-07	 9.829421e-15
5.638373e-08	 -9.413360e-07	 -4.341338e-14
1.472591e-08	 3.590386e-07	 1.426572e-07
1.472611e-08	 -3.590382e-07	 1.426570e-07
2.951684e-08	 -6.605306e-07	 -1.100187e-07
1.472617e-08	 -3.590377e-07	 -1.426569e-07
0	 0	 1.555901e-07
2.951641e-08	 6.605322e-07	 1.100188e-07
4.174268e-08	 9.341338e-07	 1.228989e-14
3.555176e-08	 8.667961e-07	 -5.909053e-08
2.951665e-08	 6.605325e-07	 -1.100188e-07
1.472607e-08	 3.590388e-07	 -1.426572e-07
0	 0	 -1.555901e-07
0	 0	 1.555899e-07
2.951677e-08	 -6.605313e-07	 1.100187e-07
4.174306e-08	 -9.341319e-07	 -5.359970e-14
3.555208e-08	 -8.667939e-07	 -5.909048e-08
0	 0	 -1.555898e-07
3.555160e-08	 8.667959e-07	 5.909054e-08
3.555201e-08	 -8.667944e-07	 5.909041e-08
0	 0	 6.046676e-08
2.376757e-07	 7.168186e-07	 -1.120261e-14