# vtk DataFile Version 3.0
Unstructured Grid Example
ASCII
DATASET UNSTRUCTURED_GRID
POINTS 1641 float
-9.500000e-01	 0	 0
-9.500000e-01	 0	 3.750000e-01
-9.500000e-01	 0	 1.125000e+00
-9.500000e-01	 0	 1.500000e+00
-9.500000e-01	 0	 1.875000e+00
-9.500000e-01	 0	 2.250000e+00
-9.500000e-01	 0	 2.625000e+00
-9.500000e-01	 0	 3
-9.500000e-01	 0	 7.500000e-01
-9.341401e-01	 -1.728649e-01	 1.500000e+00
-9.341401e-01	 -1.728649e-01	 0
-9.341401e-01	 -1.728649e-01	 3.000000e+00
-9.341401e-01	 1.728649e-01	 2.250000e+00
-9.341401e-01	 1.728649e-01	 0
-9.341401e-01	 1.728649e-01	 1.500000e+00
-9.341401e-01	 1.728649e-01	 3.000000e+00
-9.341401e-01	 -1.728649e-01	 7.500000e-01
-9.341401e-01	 -1.728649e-01	 2.250000e+00
-9.341401e-01	 1.728649e-01	 7.500000e-01
-8.832989e-01	 -3.496900e-01	 1.125000e+00
-8.832989e-01	 -3.496900e-01	 1.875000e+00
-8.832989e-01	 -3.496900e-01	 2.625000e+00
-8.832989e-01	 -3.496900e-01	 2.250000e+00
-8.832989e-01	 3.496900e-01	 1.125000e+00
-8.832989e-01	 -3.496900e-01	 0
-8.832989e-01	 -3.496900e-01	 3.000000e+00
-8.832989e-01	 -3.496900e-01	 3.750000e-01
-8.832989e-01	 -3.496900e-01	 7.500000e-01
-8.832989e-01	 3.496900e-01	 3.750000e-01
-8.832989e-01	 3.496900e-01	 7.500000e-01
-8.832989e-01	 3.496900e-01	 2.250000e+00
-8.832989e-01	 3.496900e-01	 2.625000e+00
-8.832989e-01	 3.496900e-01	 0
-8.832989e-01	 3.496900e-01	 1.875000e+00
-8.832989e-01	 3.496900e-01	 3.000000e+00
-8.832989e-01	 -3.496900e-01	 1.500000e+00
-8.832989e-01	 3.496900e-01	 1.500000e+00
-8.787500e-01	 0	 2.250000e+00
-8.787500e-01	 0	 0
-8.787500e-01	 0	 1.500000e+00
-8.787500e-01	 0	 3
-8.787500e-01	 0	 7.500000e-01
-8.149622e-01	 -3.223238e-01	 7.500000e-01
-8.149622e-01	 3.223238e-01	 7.500000e-01
-8.149622e-01	 -3.223238e-01	 2.250000e+00
-8.149622e-01	 3.223238e-01	 2.250000e+00
-8.149622e-01	 -3.223238e-01	 0
-8.149622e-01	 -3.223238e-01	 1.500000e+00
-8.149622e-01	 -3.223238e-01	 3
-8.149622e-01	 3.223238e-01	 1.500000e+00
-8.149622e-01	 3.223238e-01	 0
-8.149622e-01	 3.223238e-01	 3
-8.075000e-01	 0	 7.500000e-01
-8.075000e-01	 0	 2.250000e+00
-8.075000e-01	 0	 3.750000e-01
-8.075000e-01	 0	 1.875000e+00
-8.075000e-01	 0	 2.625000e+00
-8.075000e-01	 0	 0
-8.075000e-01	 0	 1.125000e+00
-8.075000e-01	 0	 1.500000e+00
-8.075000e-01	 0	 3
-7.951457e-01	 -5.198493e-01	 7.500000e-01
-7.951457e-01	 5.198493e-01	 7.500000e-01
-7.951457e-01	 -5.198493e-01	 0
-7.951457e-01	 -5.198493e-01	 1.500000e+00
-7.951457e-01	 -5.198493e-01	 2.250000e+00
-7.951457e-01	 -5.198493e-01	 3
-7.951457e-01	 5.198493e-01	 0
-7.951457e-01	 5.198493e-01	 1.500000e+00
-7.951457e-01	 5.198493e-01	 2.250000e+00
-7.951457e-01	 5.198493e-01	 3
-7.894916e-01	 -1.451644e-01	 7.500000e-01
-7.894916e-01	 1.451644e-01	 7.500000e-01
-7.894916e-01	 1.451644e-01	 0
-7.894916e-01	 1.451644e-01	 3
-7.894916e-01	 -1.451644e-01	 0
-7.894916e-01	 -1.451644e-01	 1.500000e+00
-7.894916e-01	 -1.451644e-01	 2.250000e+00
-7.894916e-01	 -1.451644e-01	 3
-7.894916e-01	 1.451644e-01	 1.500000e+00
-7.894916e-01	 1.451644e-01	 2.250000e+00
-7.430021e-01	 -2.929055e-01	 1.500000e+00
-7.430021e-01	 2.929055e-01	 1.500000e+00
-7.430021e-01	 -2.929055e-01	 2.250000e+00
-7.430021e-01	 -2.929055e-01	 0
-7.430021e-01	 -2.929055e-01	 3.000000e+00
-7.430021e-01	 2.929055e-01	 3.750000e-01
-7.430021e-01	 -2.929055e-01	 3.750000e-01
-7.430021e-01	 -2.929055e-01	 1.125000e+00
-7.430021e-01	 -2.929055e-01	 1.875000e+00
-7.430021e-01	 -2.929055e-01	 2.625000e+00
-7.430021e-01	 2.929055e-01	 1.125000e+00
-7.430021e-01	 2.929055e-01	 0
-7.430021e-01	 2.929055e-01	 1.875000e+00
-7.430021e-01	 2.929055e-01	 2.250000e+00
-7.430021e-01	 2.929055e-01	 2.625000e+00
-7.430021e-01	 2.929055e-01	 3.000000e+00
-7.430021e-01	 2.929055e-01	 7.500000e-01
-7.430021e-01	 -2.929055e-01	 7.500000e-01
-7.362500e-01	 0	 0
-7.362500e-01	 0	 7.500000e-01
-7.362500e-01	 0	 1.500000e+00
-7.362500e-01	 0	 2.250000e+00
-7.362500e-01	 0	 3
-6.717514e-01	 -6.717514e-01	 2.625000e+00
-6.717514e-01	 6.717514e-01	 2.625000e+00
-6.717514e-01	 -6.717514e-01	 0
-6.717514e-01	 -6.717514e-01	 3.750000e-01
-6.717514e-01	 -6.717514e-01	 7.500000e-01
-6.717514e-01	 -6.717514e-01	 1.125000e+00
-6.717514e-01	 -6.717514e-01	 1.875000e+00
-6.717514e-01	 -6.717514e-01	 3.000000e+00
-6.717514e-01	 -6.717514e-01	 2.250000e+00
-6.717514e-01	 6.717514e-01	 1.500000e+00
-6.717514e-01	 6.717514e-01	 0
-6.717514e-01	 6.717514e-01	 3.750000e-01
-6.717514e-01	 6.717514e-01	 7.500000e-01
-6.717514e-01	 6.717514e-01	 1.125000e+00
-6.717514e-01	 6.717514e-01	 1.875000e+00
-6.717514e-01	 6.717514e-01	 3.000000e+00
-6.717514e-01	 -6.717514e-01	 1.500000e+00
-6.717514e-01	 6.717514e-01	 2.250000e+00
-6.682985e-01	 -2.618048e-01	 0
-6.682985e-01	 -2.618048e-01	 1.500000e+00
-6.682985e-01	 -2.618048e-01	 3
-6.682985e-01	 -2.618048e-01	 7.500000e-01
-6.682985e-01	 -2.618048e-01	 2.250000e+00
-6.682985e-01	 2.618048e-01	 7.500000e-01
-6.682985e-01	 2.618048e-01	 2.250000e+00
-6.682985e-01	 2.618048e-01	 0
-6.682985e-01	 2.618048e-01	 1.500000e+00
-6.682985e-01	 2.618048e-01	 3
-6.665713e-01	 -4.348738e-01	 2.250000e+00
-6.665713e-01	 -4.348738e-01	 7.500000e-01
-6.665713e-01	 4.348738e-01	 7.500000e-01
-6.665713e-01	 4.348738e-01	 2.250000e+00
-6.665713e-01	 -4.348738e-01	 0
-6.665713e-01	 -4.348738e-01	 3
-6.665713e-01	 4.348738e-01	 0
-6.665713e-01	 4.348738e-01	 1.500000e+00
-6.665713e-01	 4.348738e-01	 3
-6.665713e-01	 -4.348738e-01	 1.500000e+00
-6.650000e-01	 0	 7.500000e-01
-6.650000e-01	 0	 0
-6.650000e-01	 0	 3.750000e-01
-6.650000e-01	 0	 1.125000e+00
-6.650000e-01	 0	 1.500000e+00
-6.650000e-01	 0	 1.875000e+00
-6.650000e-01	 0	 2.625000e+00
-6.650000e-01	 0	 3
-6.650000e-01	 0	 2.250000e+00
-6.383743e-01	 -1.144482e-01	 0
-6.383743e-01	 -1.144482e-01	 3.000000e+00
-6.383743e-01	 -1.144482e-01	 7.500000e-01
-6.383743e-01	 -1.144482e-01	 1.500000e+00
-6.383743e-01	 -1.144482e-01	 2.250000e+00
-6.383743e-01	 1.144482e-01	 7.500000e-01
-6.383743e-01	 1.144482e-01	 1.500000e+00
-6.383743e-01	 1.144482e-01	 0
-6.383743e-01	 1.144482e-01	 2.250000e+00
-6.383743e-01	 1.144482e-01	 3.000000e+00
-6.189903e-01	 -6.189903e-01	 0
-6.189903e-01	 -6.189903e-01	 1.500000e+00
-6.189903e-01	 -6.189903e-01	 3.000000e+00
-6.189903e-01	 6.189903e-01	 2.250000e+00
-6.189903e-01	 6.189903e-01	 0
-6.189903e-01	 6.189903e-01	 1.500000e+00
-6.189903e-01	 6.189903e-01	 3.000000e+00
-6.189903e-01	 -6.189903e-01	 2.250000e+00
-6.189903e-01	 -6.189903e-01	 7.500000e-01
-6.189903e-01	 6.189903e-01	 7.500000e-01
-5.937500e-01	 0	 0
-5.937500e-01	 0	 7.500000e-01
-5.937500e-01	 0	 1.500000e+00
-5.937500e-01	 0	 2.250000e+00
-5.937500e-01	 0	 3
-5.917666e-01	 2.294176e-01	 1.875000e+00
-5.917666e-01	 2.294176e-01	 2.250000e+00
-5.917666e-01	 -2.294176e-01	 2.250000e+00
-5.917666e-01	 -2.294176e-01	 0
-5.917666e-01	 -2.294176e-01	 2.625000e+00
-5.917666e-01	 -2.294176e-01	 3
-5.917666e-01	 -2.294176e-01	 1.500000e+00
-5.917666e-01	 -2.294176e-01	 1.875000e+00
-5.917666e-01	 2.294176e-01	 0
-5.917666e-01	 2.294176e-01	 2.625000e+00
-5.917666e-01	 2.294176e-01	 3
-5.917666e-01	 2.294176e-01	 1.500000e+00
-5.917666e-01	 -2.294176e-01	 3.750000e-01
-5.917666e-01	 -2.294176e-01	 7.500000e-01
-5.917666e-01	 -2.294176e-01	 1.125000e+00
-5.917666e-01	 2.294176e-01	 7.500000e-01
-5.917666e-01	 2.294176e-01	 1.125000e+00
-5.917666e-01	 2.294176e-01	 3.750000e-01
-5.620800e-01	 5.620800e-01	 1.125000e+00
-5.620800e-01	 -5.620800e-01	 1.125000e+00
-5.620800e-01	 -5.620800e-01	 3.750000e-01
-5.620800e-01	 -5.620800e-01	 7.500000e-01
-5.620800e-01	 -5.620800e-01	 1.875000e+00
-5.620800e-01	 -5.620800e-01	 2.625000e+00
-5.620800e-01	 5.620800e-01	 3.750000e-01
-5.620800e-01	 5.620800e-01	 7.500000e-01
-5.620800e-01	 5.620800e-01	 1.875000e+00
-5.620800e-01	 -5.620800e-01	 0
-5.620800e-01	 -5.620800e-01	 1.500000e+00
-5.620800e-01	 -5.620800e-01	 2.250000e+00
-5.620800e-01	 -5.620800e-01	 3
-5.620800e-01	 5.620800e-01	 0
-5.620800e-01	 5.620800e-01	 1.500000e+00
-5.620800e-01	 5.620800e-01	 2.250000e+00
-5.620800e-01	 5.620800e-01	 3
-5.620800e-01	 5.620800e-01	 2.625000e+00
-5.250231e-01	 -3.396892e-01	 7.500000e-01
-5.250231e-01	 3.396892e-01	 1.500000e+00
-5.250231e-01	 3.396892e-01	 2.250000e+00
-5.250231e-01	 3.396892e-01	 7.500000e-01
-5.250231e-01	 -3.396892e-01	 2.250000e+00
-5.250231e-01	 -3.396892e-01	 0
-5.250231e-01	 -3.396892e-01	 1.500000e+00
-5.250231e-01	 -3.396892e-01	 3.000000e+00
-5.250231e-01	 3.396892e-01	 0
-5.250231e-01	 3.396892e-01	 3.000000e+00
-5.225000e-01	 0	 1.500000e+00
-5.225000e-01	 0	 2.250000e+00
-5.225000e-01	 0	 0
-5.225000e-01	 0	 3.750000e-01
-5.225000e-01	 0	 7.500000e-01
-5.225000e-01	 0	 1.125000e+00
-5.225000e-01	 0	 1.875000e+00
-5.225000e-01	 0	 2.625000e+00
-5.225000e-01	 0	 3
-5.198493e-01	 7.951457e-01	 7.500000e-01
-5.198493e-01	 -7.951457e-01	 7.500000e-01
-5.198493e-01	 -7.951457e-01	 0
-5.198493e-01	 -7.951457e-01	 1.500000e+00
-5.198493e-01	 -7.951457e-01	 2.250000e+00
-5.198493e-01	 -7.951457e-01	 3
-5.198493e-01	 7.951457e-01	 0
-5.198493e-01	 7.951457e-01	 1.500000e+00
-5.198493e-01	 7.951457e-01	 2.250000e+00
-5.198493e-01	 7.951457e-01	 3
-5.143216e-01	 -1.961513e-01	 2.250000e+00
-5.143216e-01	 1.961513e-01	 7.500000e-01
-5.143216e-01	 1.961513e-01	 1.500000e+00
-5.143216e-01	 -1.961513e-01	 7.500000e-01
-5.143216e-01	 -1.961513e-01	 0
-5.143216e-01	 -1.961513e-01	 3.000000e+00
-5.143216e-01	 -1.961513e-01	 1.500000e+00
-5.143216e-01	 1.961513e-01	 2.250000e+00
-5.143216e-01	 1.961513e-01	 0
-5.143216e-01	 1.961513e-01	 3.000000e+00
-5.020120e-01	 -5.020120e-01	 7.500000e-01
-5.020120e-01	 -5.020120e-01	 1.500000e+00
-5.020120e-01	 5.020120e-01	 7.500000e-01
-5.020120e-01	 5.020120e-01	 1.500000e+00
-5.020120e-01	 -5.020120e-01	 0
-5.020120e-01	 -5.020120e-01	 2.250000e+00
-5.020120e-01	 -5.020120e-01	 3.000000e+00
-5.020120e-01	 5.020120e-01	 0
-5.020120e-01	 5.020120e-01	 2.250000e+00
-5.020120e-01	 5.020120e-01	 3.000000e+00
-4.847636e-01	 8.158725e-02	 7.500000e-01
-4.847636e-01	 -8.158725e-02	 7.500000e-01
[...]
POINT_DATA 1641
SCALARS pres_adim float 1
LOOKUP_TABLE default
3.350236e+02
2.410369e+02
-2.434051e+02
-3.375169e+02
-2.434005e+02
-1.115818e+00
2.410351e+02
3.350170e+02
-1.120646e+00
-3.204649e+02
3.181365e+02
3.181312e+02
-1.042922e+00
3.181297e+02
-3.204639e+02
3.181282e+02
-1.047283e+00
-1.043891e+00
-1.044401e+00
-1.773570e+02
-1.773600e+02
1.756332e+02
-8.176081e-01
-1.773526e+02
2.438138e+02
2.438173e+02
1.756318e+02
-8.149070e-01
1.756282e+02
-8.121268e-01
-8.163447e-01
1.756298e+02
2.438057e+02
-1.773573e+02
2.438112e+02
-2.456349e+02
-2.456316e+02
-1.110994e+00
3.314160e+02
-3.338920e+02
3.314094e+02
-1.115800e+00
-8.117419e-01
-8.090507e-01
-8.143645e-01
-8.131804e-01
2.413293e+02
-2.431382e+02
2.413327e+02
-2.431355e+02
2.413217e+02
2.413272e+02
-1.099689e+00
-1.095518e+00
2.271431e+02
-2.294502e+02
2.271415e+02
3.156240e+02
-2.294542e+02
-3.180453e+02
3.156182e+02
-4.463963e-01
-4.459702e-01
1.371253e+02
-1.381349e+02
-4.524014e-01
1.371345e+02
1.371208e+02
-1.381285e+02
-4.516947e-01
1.371273e+02
-1.027218e+00
-1.024857e+00
2.987230e+02
2.987217e+02
2.987278e+02
-3.009862e+02
-1.024245e+00
2.987230e+02
-3.009867e+02
-1.023486e+00
-2.305404e+02
-2.305401e+02
-8.024819e-01
2.287740e+02
2.287764e+02
1.647659e+02
1.647677e+02
-1.664512e+02
-1.664534e+02
1.647685e+02
-1.664492e+02
2.287690e+02
-1.664528e+02
-8.015692e-01
1.647673e+02
2.287736e+02
-7.983277e-01
-8.005600e-01
2.941662e+02
-1.071504e+00
-2.964973e+02
-1.067917e+00
2.941613e+02
1.174581e-03
-2.319838e-03
-8.685707e-04
6.830849e-04
1.897245e-03
-4.782078e-04
-1.032183e-03
1.173541e-03
1.106125e-03
4.318244e-03
-9.438156e-04
-1.026109e-03
-1.092721e-04
2.122015e-03
3.932805e-03
-3.074910e-03
-2.110798e-03
6.809772e-04
2.108026e+02
-2.124933e+02
2.108038e+02
-7.780750e-01
-7.792798e-01
-7.765115e-01
-7.787135e-01
2.108009e+02
-2.124961e+02
2.108045e+02
-4.438060e-01
-4.391604e-01
-4.388921e-01
-4.434324e-01
1.284277e+02
1.284348e+02
1.284260e+02
-1.294032e+02
1.284316e+02
-1.294056e+02
-1.023695e+00
2.636084e+02
1.892935e+02
-1.914144e+02
-2.658025e+02
-1.914118e+02
1.892924e+02
2.636045e+02
-1.020762e+00
2.437260e+02
2.437226e+02
-9.479197e-01
-2.457489e+02
-9.459055e-01
-9.469514e-01
-2.457523e+02
2.437257e+02
-9.456243e-01
2.437248e+02
-9.118195e-04
-2.004530e-03
1.068268e-03
5.963443e-04
-7.669438e-04
3.953193e-03
-2.797691e-03
1.010344e-03
1.751126e-03
-1.986804e-04
2.297418e+02
-9.543159e-01
-2.317544e+02
-9.520884e-01
2.297390e+02
-1.337060e+02
-7.358249e-01
-7.360537e-01
1.840702e+02
1.321820e+02
1.840705e+02
-1.856383e+02
-1.337022e+02
1.840718e+02
1.321852e+02
1.840745e+02
-1.856440e+02
1.321822e+02
-7.354399e-01
-1.337016e+02
-7.347671e-01
-1.337047e+02
1.321842e+02
6.248522e-04
-2.918977e-04
5.699190e-05
1.266353e-03
-8.695400e-04
5.557737e-04
-1.948773e-04
-3.223052e-04
1.763396e-03
-1.211992e-03
-1.419759e-03
6.274737e-04
5.639403e-04
2.129201e-04
1.983618e-03
1.824482e-04
-9.723561e-04
-9.320348e-04
-4.042126e-01
-1.030200e+02
-4.063911e-01
-4.046777e-01
-4.062844e-01
1.021504e+02
-1.030141e+02
1.021531e+02
1.021548e+02
1.021583e+02
-1.934580e+02
-8.535513e-01
1.916826e+02
1.365385e+02
-8.552806e-01
-1.382814e+02
-1.382801e+02
1.365380e+02
1.916805e+02
4.463112e-01
4.488906e-01
-1.371246e+02
1.381321e+02
4.544038e-01
-1.371324e+02
-1.371240e+02
1.381353e+02
4.527848e-01
-1.371327e+02
-6.698055e-01
-6.698329e-01
-1.555893e+02
-6.696277e-01
1.541822e+02
1.541816e+02
-1.555815e+02
-6.698342e-01
1.541863e+02
1.541879e+02
6.770674e-04
-6.524439e-04
-6.618042e-04
-5.218989e-04
-1.657373e-03
9.223085e-05
-9.237822e-05
1.481137e-03
-3.348119e-04
1.260119e-03
-7.605141e-01
-7.603073e-01
1.666109e+02
-1.681780e+02
1.666092e+02
-7.592917e-01
1.666132e+02
-1.681824e+02
-7.593795e-01
1.666128e+02
-1.538636e+02
-7.296534e-01
1.523693e+02
-7.307719e-01
1.523681e+02
2.877006e-04
-2.624638e-03
-1.942154e-03
-7.394796e-04
-6.721696e-04
-1.085375e-03
1.707041e-04
-2.524131e-03
2.691830e-03
1.761146e-03
3.163754e-03
-3.714455e-04
-3.864793e-04
-7.559816e-04
1.568601e-03
-2.855440e-03
-1.068828e-03
1.965711e-04
-8.767310e+01
-1.225911e+02
8.651463e+01
8.651530e+01
-1.225985e+02
-8.767830e+01
-5.734220e-01
8.651081e+01
8.651149e+01
-5.732977e-01
1.214187e+02
-5.740432e-01
-5.735964e-01
1.214198e+02
-8.767814e+01
-8.767299e+01
1.214143e+02
1.214137e+02
4.436607e-01
4.448803e-01
-1.284270e+02
-1.284333e+02
4.406577e-01
-1.284280e+02
1.294038e+02
-1.284337e+02
1.294062e+02
4.387636e-01
1.147445e+02
8.067336e+01
-5.842065e-01
-8.184716e+01
-1.159241e+02
-8.184669e+01
-5.834891e-01
8.067320e+01
1.147437e+02
-3.097900e-01
-3.105430e-01
6.518152e+01
6.518176e+01
-6.581578e+01
6.518754e+01
-6.582416e+01
-3.108121e-01
6.518908e+01
-3.110460e-01
-6.509476e-04
-1.988824e-03
-3.137561e-05
8.656890e-04
-9.730940e-04
3.493878e-03
-1.263952e-03
-4.522039e-03
4.430578e-03
-9.935509e-04
-4.557032e-01
8.882763e+01
8.882699e+01
8.883142e+01
8.883200e+01
-4.559515e-01
-4.556306e-01
-4.565376e-01
-8.975407e+01
-8.974798e+01
1.773564e+02
-2.438092e+02
1.773613e+02
-2.438162e+02
2.456353e+02
-2.438102e+02
-2.438134e+02
1.773555e+02
1.773583e+02
-1.756310e+02
-1.756297e+02
8.146068e-01
8.186340e-01
-1.756324e+02
2.456334e+02
-1.756302e+02
8.168748e-01
8.140573e-01
4.039906e-01
1.030147e+02
4.054925e-01
4.050276e-01
4.031289e-01
-1.021528e+02
-1.021542e+02
-1.021509e+02
1.030150e+02
-1.021530e+02
-4.675476e-01
-8.953239e+01
8.859489e+01
-4.672635e-01
8.859424e+01
8.859636e+01
-8.953484e+01
-4.674151e-01
8.859624e+01
-4.679153e-01
8.112833e-01
8.152559e-01
8.108599e-01
8.135735e-01
-2.413250e+02
-2.413317e+02
-2.413259e+02
2.431370e+02
-2.413290e+02
2.431387e+02
6.124272e-05
-1.188233e-03
-3.461787e-03
7.934000e-04
-1.485693e-03
-8.364208e-04
1.133092e-03
2.748488e-04
-9.389459e-04
-7.778895e-04
3.038928e-03
1.927749e-03
-4.345858e-03
-3.498882e-03
2.439807e-03
4.020557e-03
-5.469042e-04
-8.669273e-04
2.305408e+02
-1.647664e+02
-1.647671e+02
8.016115e-01
2.305405e+02
-2.287707e+02
1.664542e+02
8.029098e-01
-1.647682e+02
-2.287757e+02
1.664508e+02
1.664528e+02
-2.287720e+02
-2.287743e+02
1.664506e+02
7.998050e-01
7.996237e-01
-1.647677e+02
4.224749e+01
6.015083e+01
-4.289879e+01
-6.080184e+01
-4.289880e+01
-3.261302e-01
4.224698e+01
6.015032e+01
6.015297e+01
-3.267201e-01
-3.264047e-01
4.224904e+01
6.015327e+01
-4.290158e+01
-6.080561e+01
-3.260023e-01
4.224880e+01
-4.290138e+01
-2.108007e+02
2.124939e+02
-2.108036e+02
-2.108023e+02
2.124952e+02
-2.108039e+02
7.768809e-01
7.790919e-01
7.770432e-01
7.782945e-01
-7.854821e-04
3.514525e-04
1.156588e-03
-5.059408e-04
2.098408e-03
-7.991240e-04
-3.378969e-03
2.976257e-03
-1.957564e-04
-5.495281e-04
3.096172e-01
3.090376e-01
3.093041e-01
-6.518390e+01
6.581785e+01
3.094829e-01
-6.518299e+01
-6.518257e+01
-6.518230e+01
6.581682e+01
-4.697752e+01
-4.697595e+01
-3.076005e+01
4.645689e+01
4.645644e+01
-3.076408e+01
3.042663e+01
-1.676936e-01
3.042626e+01
-1.673570e-01
-2.616564e-01
-2.615920e-01
4.645761e+01
-2.619626e-01
4.645755e+01
-2.618062e-01
-1.682846e-01
3.042877e+01
-1.680417e-01
3.042925e+01
7.350182e-01
7.353263e-01
1.856390e+02
-1.321827e+02
-1.321838e+02
-1.840697e+02
-1.321827e+02
-1.840705e+02
7.344627e-01
-1.840717e+02
-1.321842e+02
-1.840725e+02
1.337022e+02
7.339916e-01
1.337012e+02
1.337035e+02
1.856419e+02
1.337040e+02
6.688611e-01
1.555825e+02
-1.541826e+02
-1.541818e+02
-1.541851e+02
-1.541853e+02
6.682955e-01
6.687818e-01
1.555865e+02
6.688715e-01
6.691070e-04
-2.662923e-04
4.423011e-04
-3.177982e+01
-1.828313e-01
8.376710e-04
-1.372376e-04
8.065882e-04
8.517144e-04
4.876166e-04
2.444840e-04
-4.229762e-05
-2.383402e-04
2.214272e+01
2.214297e+01
3.141835e+01
-2.250631e+01
3.141801e+01
-1.828344e-01
8.820708e-04
-1.348256e-03
-1.924006e-03
-1.405527e-03
-1.308832e-04
1.142000e-03
1.450783e-03
-2.250629e+01
3.204609e+02
-3.181314e+02
3.204671e+02
-3.181310e+02
-3.181324e+02
-3.181270e+02
1.043674e+00
1.045397e+00
1.046851e+00
1.043213e+00
8.767326e+01
8.767619e+01
1.225922e+02
8.767291e+01
8.767583e+01
5.727524e-01
1.225960e+02
-8.651130e+01
-1.214149e+02
5.724199e-01
5.725912e-01
-1.214137e+02
-1.214176e+02
-1.214174e+02
-8.651384e+01
-8.651210e+01
-8.651380e+01
5.728826e-01
1.025220e+00
-2.987235e+02
-2.987226e+02
1.026713e+00
3.009879e+02
1.023881e+00
-2.987256e+02
3.009850e+02
1.023657e+00
-2.987213e+02
8.283246e-04
1.239409e-04
-9.473978e-04
3.076162e+01
-3.042678e+01
1.681561e-01
-3.042660e+01
5.678689e-04
1.865402e-04
5.676424e-04
-1.856904e-04
1.594739e+01
-1.613278e+01
-9.378818e-02
1.594694e+01
-9.369462e-02
-9.395574e-02
1.594755e+01
1.594737e+01
-9.395717e-02
1.551783e-04
1.946647e-04
3.822187e-04
-3.042737e+01
1.678444e-01
-3.042686e+01
3.076088e+01
1.685183e-01
-1.613362e+01
1.678156e-01
4.553972e-01
8.974913e+01
-8.882797e+01
-8.882681e+01
4.555352e-01
8.975226e+01
4.556558e-01
-8.883075e+01
-8.883036e+01
4.554601e-01
-2.437236e+02
9.451571e-01
-2.437217e+02
-2.437282e+02
-2.437262e+02
2.457535e+02
9.456111e-01
9.474598e-01
9.458145e-01
2.457494e+02
-4.018200e-04
4.289961e+01
6.080284e+01
8.534979e-04
3.238483e-04
7.627832e-04
3.195623e-04
-4.224846e+01
-6.015059e+01
3.267157e-01
3.265463e-01
-4.224653e+01
-6.015013e+01
4.289927e+01
1.854484e-04
-2.986234e-04
8.603634e-04
4.965305e-04
2.752540e-04
-2.289358e-04
4.279903e-04
-1.347995e-04
4.600850e-04
3.351878e-04
-3.343485e-04
3.264521e-01
-6.015313e+01
4.290102e+01
6.080475e+01
4.290065e+01
3.263988e-01
-4.224830e+01
-6.015280e+01
-4.224657e+01
3.624007e-04
-6.470130e-05
7.588150e-01
7.602066e-01
-1.666100e+02
1.681780e+02
7.586958e-01
-1.666079e+02
-1.666157e+02
1.681853e+02
-1.666151e+02
7.593895e-01
4.676046e-01
2.625925e-01
5.782105e-04
2.623638e-01
8.953711e+01
-8.859409e+01
8.953260e+01
4.675791e-01
-8.859327e+01
4.697645e+01
-4.645619e+01
-4.645622e+01
2.626830e-01
9.521725e-02
3.105798e-05
7.755774e-04
-5.381118e-04
-3.274437e-05
7.931786e-04
-3.845879e-04
-2.050053e-04
6.239592e-04
-7.259747e-04
-1.594823e+01
-1.594826e+01
1.613320e+01
9.486440e-02
2.623293e-01
-4.645889e+01
-4.645873e+01
4.697814e+01
-8.859851e+01
4.677105e-01
-8.859823e+01
4.679248e-01
-1.594694e+01
1.613320e+01
-1.594742e+01
9.529301e-02
9.482722e-02
-2.214306e+01
-2.214315e+01
2.250675e+01
2.250679e+01
1.840308e-01
1.840523e-01
-3.350226e+02
-2.410375e+02
2.434064e+02
3.375186e+02
2.434007e+02
1.114991e+00
-2.410360e+02
-3.350170e+02
1.120113e+00
1.110124e+00
-3.314149e+02
3.338936e+02
-3.314093e+02
1.115187e+00
1.098870e+00
1.094732e+00
-2.271436e+02
2.294502e+02
-2.271420e+02
-3.156227e+02
2.294547e+02
3.180463e+02
-3.156178e+02
-2.941647e+02
1.070320e+00
2.964977e+02
1.067156e+00
-2.941603e+02
1.022179e+00
-2.636068e+02
-1.892935e+02
1.914135e+02
2.658023e+02
1.914113e+02
-1.892920e+02
-2.636030e+02
1.020014e+00
-2.297401e+02
9.525863e-01
2.317536e+02
9.514912e-01
-2.297370e+02
1.934570e+02
8.531111e-01
-1.916809e+02
-1.365381e+02
8.536204e-01
1.382797e+02
1.382790e+02
-1.365368e+02
-1.916785e+02
1.538627e+02
7.295050e-01
-1.523677e+02
7.295088e-01
-1.523660e+02
-1.147431e+02
-8.067245e+01
5.835839e-01
8.184630e+01
1.159235e+02
8.184614e+01
5.837041e-01
-8.067184e+01
-1.147421e+02
-3.263511e-04
-8.111890e-04
5.618325e-05
6.293987e-05
-2.744446e-04
6.058854e-04
6.533203e-04
3.617831e-04
1.357705e-04
-3.141987e+01
1.837313e-01
-3.141995e+01
1.836909e-01
3.178087e+01
-1.147486e+02
-8.067586e+01
5.844471e-01
8.185110e+01
1.159298e+02
8.185063e+01
5.841581e-01
-8.067599e+01
-1.147485e+02
-1.523741e+02
7.309307e-01
-1.523739e+02
7.303564e-01
1.538704e+02
-1.916871e+02
-1.365417e+02
8.553880e-01
1.382861e+02
1.382852e+02
-1.365419e+02
-1.916863e+02
1.934647e+02
8.542917e-01
-2.297457e+02
9.544444e-01
2.317601e+02
9.528620e-01
-2.297442e+02
1.021454e+00
-2.636107e+02
-1.892952e+02
1.914169e+02
2.658056e+02
1.914147e+02
-1.892947e+02
-2.636078e+02
1.023911e+00
-2.941668e+02
1.071794e+00
2.964974e+02
1.068550e+00
-2.941625e+02
-3.156231e+02
2.294529e+02
3.180425e+02
-3.156173e+02
-2.271424e+02
2.294485e+02
-2.271406e+02
1.100078e+00
1.096089e+00
1.116243e+00
-3.314138e+02
3.338869e+02
-3.314066e+02
1.111484e+00
1.121082e+00
-3.350213e+02
-2.410350e+02
2.434021e+02
3.375113e+02
2.433966e+02
1.116320e+00
-2.410325e+02
-3.350139e+02
-2.214147e+01
-3.141774e+01
-3.141815e+01
3.177993e+01
-2.214188e+01
2.250743e+01
2.250727e+01
9.510181e-02
-3.169843e-04
-1.594866e+01
9.476079e-02
1.613342e+01
-1.594885e+01
-1.594740e+01
1.613338e+01
-1.594807e+01
-4.746316e-04
4.676600e-01
-8.859490e+01
8.953402e+01
4.679675e-01
-8.859476e+01
-4.645680e+01
-4.645719e+01
-2.283830e-04
5.334715e-04
5.972764e-04
-8.253787e-04
-6.167676e-04
4.489756e-04
-9.785800e-04
3.728869e-04
9.481891e-02
2.624717e-01
2.625341e-01
-4.645947e+01
-4.645960e+01
-8.859939e+01
8.953858e+01
4.681493e-01
-8.859958e+01
4.681520e-01
2.627591e-01
2.626072e-01
9.517034e-02
4.697892e+01
4.697719e+01
7.593888e-01
-1.666115e+02
1.681807e+02
-1.666103e+02
-1.666170e+02
1.681879e+02
7.604513e-01
-1.666174e+02
7.591895e-01
7.606355e-01
-4.224770e+01
2.458198e-04
2.025265e-04
-6.471966e-04
-4.224951e+01
-6.015187e+01
3.266758e-01
4.290095e+01
6.080489e+01
4.290125e+01
3.270810e-01
-4.224794e+01
-6.015243e+01
4.377058e-04
-3.581907e-04
1.330871e-04
-2.581550e-05
4.830803e-04
-2.044787e-04
-9.989455e-04
-7.308533e-04
1.628128e-04
-1.583711e-04
-9.389281e-04
-2.284238e-04
3.267982e-01
4.290252e+01
-6.015450e+01
4.290258e+01
6.080690e+01
3.270193e-01
-4.224957e+01
-6.015486e+01
1.527415e-04
-3.890900e-04
-3.335648e-04
9.475476e-01
2.457549e+02
9.465251e-01
2.457510e+02
9.453396e-01
-2.437255e+02
-2.437230e+02
-2.437282e+02
9.469981e-01
-2.437279e+02
4.564244e-01
-8.882987e+01
-8.883043e+01
4.557491e-01
8.975281e+01
4.563160e-01
-8.883288e+01
-8.883356e+01
8.975600e+01
4.566678e-01
-6.947249e-04
-1.410464e-03
1.682904e-01
-9.435497e-02
-1.613459e+01
-9.452106e-02
1.681028e-01
3.076359e+01
-3.042828e+01
1.686067e-01
-3.042921e+01
3.198588e-04
6.574095e-04
3.769321e-04
-9.432868e-02
1.594713e+01
1.594700e+01
-9.449477e-02
-6.368461e-04
-4.346612e-05
3.283741e-05
-6.547547e-04
-7.809776e-04
-3.042896e+01
1.683457e-01
-3.042917e+01
3.076300e+01
1.594692e+01
-1.613378e+01
1.594652e+01
-2.987256e+02
3.009866e+02
1.023142e+00
-2.987216e+02
3.009838e+02
1.024943e+00
1.026224e+00
-2.987234e+02
-2.987213e+02
1.025928e+00
-8.651383e+01
5.729403e-01
-8.651549e+01
-8.651389e+01
-1.214172e+02
-1.214179e+02
-1.214198e+02
5.737347e-01
5.744708e-01
-1.214212e+02
-8.651607e+01
1.225969e+02
5.738950e-01
8.767730e+01
8.768014e+01
1.226006e+02
8.767652e+01
8.767956e+01
1.046550e+00
1.042546e+00
1.045570e+00
1.044364e+00
-3.181337e+02
-3.181289e+02
-3.181292e+02
3.204583e+02
-3.181262e+02
3.204643e+02
3.141817e+01
2.214251e+01
3.141814e+01
-1.280160e-03
1.283727e-03
1.803311e-03
1.591407e-03
3.340214e-04
-1.253589e-03
-2.146012e-03
-1.835326e-01
-2.250777e+01
-2.250774e+01
-2.681250e-04
-7.110421e-04
-8.702505e-04
-5.562322e-04
-2.240085e-05
2.951145e-05
-1.657626e-04
-7.609846e-04
2.214247e+01
-3.178157e+01
-1.836710e-01
-7.485026e-05
2.152631e-04
-1.606386e-04
6.700989e-01
1.555873e+02
6.708267e-01
6.697029e-01
-1.541852e+02
-1.541861e+02
-1.541871e+02
-1.541892e+02
1.555911e+02
6.690217e-01
1.856423e+02
1.337052e+02
1.337039e+02
7.350044e-01
1.337055e+02
1.337074e+02
-1.840721e+02
-1.321844e+02
-1.840734e+02
7.349277e-01
-1.840723e+02
-1.321856e+02
-1.840752e+02
-1.321841e+02
-1.321845e+02
1.856448e+02
7.368353e-01
7.361726e-01
-2.623948e-01
-2.625866e-01
3.042604e+01
-1.680772e-01
3.042553e+01
-1.679908e-01
-1.684415e-01
3.042832e+01
-1.684341e-01
3.042875e+01
-3.076056e+01
4.645698e+01
-2.626296e-01
4.645702e+01
4.645778e+01
4.645821e+01
-2.627597e-01
-3.076457e+01
-4.697819e+01
-4.697974e+01
6.582328e+01
-6.518637e+01
-6.518813e+01
-6.518548e+01
6.582228e+01
3.110200e-01
-6.518668e+01
3.110192e-01
3.099034e-01
3.100900e-01
4.186879e-04
5.278893e-05
-2.231726e-03
1.112418e-04
3.593594e-03
-3.337361e-03
4.608414e-04
-2.228657e-04
-8.893719e-04
5.289560e-04
7.778430e-01
7.793222e-01
7.771181e-01
7.797169e-01
-2.108027e+02
2.124948e+02
-2.108047e+02
-2.108013e+02
2.124958e+02
-2.108050e+02
-3.267087e-01
-4.290055e+01
4.224734e+01
4.224899e+01
-3.270861e-01
-4.290333e+01
-4.290043e+01
-6.080406e+01
6.015112e+01
-3.270342e-01
4.224726e+01
6.015117e+01
6.015344e+01
-4.290323e+01
-6.080782e+01
-3.272604e-01
4.224935e+01
6.015422e+01
-1.647677e+02
8.007622e-01
7.992238e-01
1.664491e+02
-2.287724e+02
-2.287749e+02
1.664508e+02
1.664525e+02
-2.287695e+02
1.664524e+02
8.025559e-01
-1.647669e+02
-2.287738e+02
2.305392e+02
8.024542e-01
-1.647669e+02
-1.647658e+02
2.305386e+02
4.857687e-04
1.587754e-04
-2.889174e-03
-2.107690e-03
4.825322e-03
3.861087e-03
-2.906539e-03
-4.116817e-03
1.203177e-03
9.015143e-04
-7.692515e-04
-4.153800e-04
9.030378e-04
1.252542e-03
-9.045525e-04
3.251297e-03
5.513800e-05
-2.156354e-04
2.431333e+02
-2.413263e+02
2.431350e+02
-2.413294e+02
-2.413223e+02
-2.413271e+02
8.142533e-01
8.122805e-01
8.141626e-01
8.100961e-01
-4.681565e-01
-8.953617e+01
8.859615e+01
-4.685643e-01
8.859669e+01
8.859782e+01
-8.953861e+01
-4.686357e-01
8.859869e+01
-4.683733e-01
-1.021546e+02
1.030191e+02
-1.021581e+02
-1.021525e+02
-1.021558e+02
4.044705e-01
4.068911e-01
1.030187e+02
4.063400e-01
4.040832e-01
8.155131e-01
8.175325e-01
-1.756298e+02
2.456312e+02
-1.756281e+02
8.131964e-01
8.173492e-01
-1.756292e+02
1.773554e+02
1.773573e+02
-1.756307e+02
-2.438105e+02
-2.438137e+02
2.456292e+02
-2.438063e+02
1.773561e+02
-2.438112e+02
1.773522e+02
-8.975666e+01
-8.975053e+01
-4.560911e-01
-4.565861e-01
-4.565895e-01
8.882854e+01
8.882882e+01
8.883272e+01
8.883384e+01
-4.567423e-01
5.280969e-04
-3.205404e-03
8.167507e-05
5.259478e-03
-4.491521e-03
1.778318e-03
-1.940291e-04
-6.113654e-04
1.767416e-03
1.949692e-04
-3.099594e-01
6.518144e+01
-6.581499e+01
-3.103996e-01
6.518129e+01
-6.582363e+01
6.518763e+01
6.518879e+01
-3.105977e-01
-3.105010e-01
1.147465e+02
8.067464e+01
-5.845950e-01
-8.185021e+01
-1.159288e+02
-8.185059e+01
-5.849038e-01
8.067502e+01
1.147473e+02
4.405311e-01
1.294029e+02
-1.284259e+02
1.294040e+02
-1.284317e+02
4.390722e-01
-1.284274e+02
-1.284338e+02
4.430055e-01
4.450132e-01
1.214207e+02
1.214222e+02
-8.768031e+01
-8.767513e+01
1.214154e+02
-5.733614e-01
-5.742606e-01
1.214161e+02
8.651618e+01
-5.739182e-01
8.651683e+01
-5.740999e-01
-8.767436e+01
-1.225935e+02
8.651219e+01
8.651223e+01
-1.226010e+02
-8.768000e+01
-1.168492e-04
6.061699e-05
-1.691487e-03
3.733666e-03
5.187000e-04
-1.087628e-04
-3.433726e-04
-2.347308e-03
-2.326405e-03
-3.371692e-03
3.057691e-03
1.009379e-03
-2.901464e-04
1.545056e-03
1.080983e-03
1.886526e-03
2.399261e-03
-5.382495e-04
1.523721e+02
-7.308705e-01
1.523728e+02
-7.310343e-01
-1.538689e+02
1.666132e+02
-1.681828e+02
-7.606210e-01
1.666138e+02
-7.603418e-01
1.666164e+02
-1.681872e+02
1.666172e+02
-7.605151e-01
-7.601457e-01
-1.034470e-03
5.737638e-04
-1.756944e-03
9.157021e-04
-5.844204e-04
1.746138e-03
8.145873e-06
1.422295e-03
-4.624982e-05
-2.787626e-05
1.541831e+02
1.541844e+02
-6.706148e-01
-1.555915e+02
1.541888e+02
1.541905e+02
-6.697833e-01
-1.555835e+02
-6.692532e-01
-6.699718e-01
-1.371229e+02
1.381285e+02
4.538811e-01
-1.371308e+02
-1.371220e+02
1.381305e+02
4.511556e-01
-1.371288e+02
4.464192e-01
4.483131e-01
1.916855e+02
1.365407e+02
-8.550680e-01
-1.382844e+02
-1.382846e+02
1.365409e+02
1.916854e+02
-1.934630e+02
-8.546675e-01
1.021505e+02
1.021528e+02
1.021554e+02
-1.030194e+02
1.021588e+02
-4.059778e-01
-4.043236e-01
-1.030126e+02
-4.063732e-01
-4.043192e-01
1.172840e-04
4.899609e-04
-1.039072e-03
7.027201e-04
-1.149019e-04
4.759534e-05
2.853190e-04
-1.154016e-03
1.334751e-03
4.380869e-04
-9.179586e-05
-1.856647e-04
-6.555794e-05
-2.245577e-04
1.291926e-05
-5.965016e-04
2.769760e-04
-1.071554e-03
1.321826e+02
-7.348201e-01
-1.337017e+02
-1.337060e+02
-7.350844e-01
1.321857e+02
-1.856393e+02
1.840702e+02
1.321831e+02
1.840725e+02
-1.856453e+02
-1.337069e+02
1.840742e+02
1.321865e+02
1.840762e+02
-7.355798e-01
-7.367920e-01
-1.337036e+02
2.297443e+02
-9.538339e-01
-2.317587e+02
-9.528609e-01
2.297433e+02
-1.917545e-04
6.883521e-05
-1.650200e-03
1.778100e-03
-2.987398e-03
1.131560e-03
8.389039e-04