# vtk DataFile Version 3.0
Unstructured Grid Example
ASCII
DATASET UNSTRUCTURED_GRID
POINTS 832 float
-1	 0	 0
-1	 0	 3.750000e-01
-1	 0	 7.500000e-01
-1	 0	 1.125000e+00
-1	 0	 1.500000e+00
-1	 0	 1.875000e+00
-1	 0	 2.250000e+00
-1	 0	 2.625000e+00
-1	 0	 3
-9.875000e-01	 0	 0
-9.875000e-01	 0	 1.500000e+00
-9.875000e-01	 0	 3
-9.875000e-01	 0	 2.250000e+00
-9.875000e-01	 0	 7.500000e-01
-9.833054e-01	 -1.819631e-01	 7.500000e-01
-9.833054e-01	 -1.819631e-01	 0
-9.833054e-01	 -1.819631e-01	 1.500000e+00
-9.833054e-01	 -1.819631e-01	 3.000000e+00
-9.833054e-01	 1.819631e-01	 2.250000e+00
-9.833054e-01	 1.819631e-01	 0
-9.833054e-01	 1.819631e-01	 1.500000e+00
-9.833054e-01	 1.819631e-01	 3.000000e+00
-9.833054e-01	 1.819631e-01	 7.500000e-01
-9.833054e-01	 -1.819631e-01	 2.250000e+00
-9.750000e-01	 0	 7.500000e-01
-9.750000e-01	 0	 1.125000e+00
-9.750000e-01	 0	 0
-9.750000e-01	 0	 3.750000e-01
-9.750000e-01	 0	 1.875000e+00
-9.750000e-01	 0	 2.625000e+00
-9.750000e-01	 0	 3
-9.750000e-01	 0	 1.500000e+00
-9.750000e-01	 0	 2.250000e+00
-9.625000e-01	 0	 1.500000e+00
-9.625000e-01	 0	 2.250000e+00
-9.625000e-01	 0	 0
-9.625000e-01	 0	 7.500000e-01
-9.625000e-01	 0	 3
-9.587227e-01	 -1.774140e-01	 0
-9.587227e-01	 -1.774140e-01	 3.000000e+00
-9.587227e-01	 -1.774140e-01	 1.500000e+00
-9.587227e-01	 1.774140e-01	 0
-9.587227e-01	 1.774140e-01	 3.000000e+00
-9.587227e-01	 1.774140e-01	 1.500000e+00
-9.587227e-01	 1.774140e-01	 7.500000e-01
-9.587227e-01	 -1.774140e-01	 7.500000e-01
-9.587227e-01	 -1.774140e-01	 2.250000e+00
-9.587227e-01	 1.774140e-01	 2.250000e+00
-9.500000e-01	 0	 0
-9.500000e-01	 0	 3.750000e-01
-9.500000e-01	 0	 1.125000e+00
-9.500000e-01	 0	 1.500000e+00
-9.500000e-01	 0	 1.875000e+00
-9.500000e-01	 0	 2.250000e+00
-9.500000e-01	 0	 2.625000e+00
-9.500000e-01	 0	 3
-9.500000e-01	 0	 7.500000e-01
-9.341401e-01	 -1.728649e-01	 1.500000e+00
-9.341401e-01	 -1.728649e-01	 0
-9.341401e-01	 -1.728649e-01	 3.000000e+00
-9.341401e-01	 1.728649e-01	 2.250000e+00
-9.341401e-01	 1.728649e-01	 0
-9.341401e-01	 1.728649e-01	 1.500000e+00
-9.341401e-01	 1.728649e-01	 3.000000e+00
-9.341401e-01	 -1.728649e-01	 7.500000e-01
-9.341401e-01	 -1.728649e-01	 2.250000e+00
-9.341401e-01	 1.728649e-01	 7.500000e-01
-9.297883e-01	 -3.680947e-01	 1.125000e+00
-9.297883e-01	 -3.680947e-01	 0
-9.297883e-01	 -3.680947e-01	 7.500000e-01
-9.297883e-01	 -3.680947e-01	 1.500000e+00
-9.297883e-01	 -3.680947e-01	 1.875000e+00
-9.297883e-01	 -3.680947e-01	 2.250000e+00
-9.297883e-01	 -3.680947e-01	 2.625000e+00
-9.297883e-01	 -3.680947e-01	 3.000000e+00
-9.297883e-01	 -3.680947e-01	 3.750000e-01
-9.297883e-01	 3.680947e-01	 3.750000e-01
-9.297883e-01	 3.680947e-01	 2.250000e+00
-9.297883e-01	 3.680947e-01	 2.625000e+00
-9.297883e-01	 3.680947e-01	 0
-9.297883e-01	 3.680947e-01	 7.500000e-01
-9.297883e-01	 3.680947e-01	 1.500000e+00
-9.297883e-01	 3.680947e-01	 1.875000e+00
-9.297883e-01	 3.680947e-01	 3.000000e+00
-9.297883e-01	 3.680947e-01	 1.125000e+00
-9.181659e-01	 3.634935e-01	 7.500000e-01
-9.181659e-01	 -3.634935e-01	 0
-9.181659e-01	 -3.634935e-01	 7.500000e-01
-9.181659e-01	 -3.634935e-01	 2.250000e+00
-9.181659e-01	 -3.634935e-01	 3
-9.181659e-01	 3.634935e-01	 0
-9.181659e-01	 3.634935e-01	 2.250000e+00
-9.181659e-01	 3.634935e-01	 3
-9.181659e-01	 -3.634935e-01	 1.500000e+00
-9.181659e-01	 3.634935e-01	 1.500000e+00
-9.065436e-01	 -3.588923e-01	 1.125000e+00
-9.065436e-01	 -3.588923e-01	 2.625000e+00
-9.065436e-01	 -3.588923e-01	 0
-9.065436e-01	 -3.588923e-01	 3.750000e-01
-9.065436e-01	 -3.588923e-01	 1.500000e+00
-9.065436e-01	 -3.588923e-01	 3
-9.065436e-01	 3.588923e-01	 2.625000e+00
-9.065436e-01	 3.588923e-01	 1.125000e+00
-9.065436e-01	 3.588923e-01	 0
-9.065436e-01	 3.588923e-01	 3.750000e-01
-9.065436e-01	 3.588923e-01	 3
-9.065436e-01	 -3.588923e-01	 7.500000e-01
-9.065436e-01	 -3.588923e-01	 1.875000e+00
-9.065436e-01	 3.588923e-01	 1.875000e+00
-9.065436e-01	 3.588923e-01	 1.500000e+00
-9.065436e-01	 -3.588923e-01	 2.250000e+00
-9.065436e-01	 3.588923e-01	 7.500000e-01
-9.065436e-01	 3.588923e-01	 2.250000e+00
-8.949212e-01	 3.542912e-01	 1.500000e+00
-8.949212e-01	 -3.542912e-01	 1.500000e+00
-8.949212e-01	 -3.542912e-01	 0
-8.949212e-01	 -3.542912e-01	 3.000000e+00
-8.949212e-01	 3.542912e-01	 0
-8.949212e-01	 3.542912e-01	 3.000000e+00
-8.949212e-01	 -3.542912e-01	 2.250000e+00
-8.949212e-01	 -3.542912e-01	 7.500000e-01
-8.949212e-01	 3.542912e-01	 2.250000e+00
-8.949212e-01	 3.542912e-01	 7.500000e-01
-8.832989e-01	 -3.496900e-01	 1.125000e+00
-8.832989e-01	 -3.496900e-01	 1.875000e+00
-8.832989e-01	 -3.496900e-01	 2.625000e+00
-8.832989e-01	 -3.496900e-01	 2.250000e+00
-8.832989e-01	 3.496900e-01	 1.125000e+00
-8.832989e-01	 -3.496900e-01	 0
-8.832989e-01	 -3.496900e-01	 3.000000e+00
-8.832989e-01	 -3.496900e-01	 3.750000e-01
-8.832989e-01	 -3.496900e-01	 7.500000e-01
-8.832989e-01	 3.496900e-01	 3.750000e-01
-8.832989e-01	 3.496900e-01	 7.500000e-01
-8.832989e-01	 3.496900e-01	 2.250000e+00
-8.832989e-01	 3.496900e-01	 2.625000e+00
-8.832989e-01	 3.496900e-01	 0
-8.832989e-01	 3.496900e-01	 1.875000e+00
-8.832989e-01	 3.496900e-01	 3.000000e+00
-8.832989e-01	 -3.496900e-01	 1.500000e+00
-8.832989e-01	 3.496900e-01	 1.500000e+00
-8.369955e-01	 -5.472098e-01	 0
-8.369955e-01	 -5.472098e-01	 7.500000e-01
-8.369955e-01	 -5.472098e-01	 1.500000e+00
-8.369955e-01	 -5.472098e-01	 2.250000e+00
-8.369955e-01	 -5.472098e-01	 3
-8.369955e-01	 5.472098e-01	 0
-8.369955e-01	 5.472098e-01	 7.500000e-01
-8.369955e-01	 5.472098e-01	 1.500000e+00
-8.369955e-01	 5.472098e-01	 2.250000e+00
-8.369955e-01	 5.472098e-01	 3
-8.160706e-01	 -5.335295e-01	 7.500000e-01
-8.160706e-01	 5.335295e-01	 7.500000e-01
-8.160706e-01	 -5.335295e-01	 1.500000e+00
-8.160706e-01	 -5.335295e-01	 2.250000e+00
-8.160706e-01	 5.335295e-01	 1.500000e+00
-8.160706e-01	 5.335295e-01	 2.250000e+00
-8.160706e-01	 -5.335295e-01	 0
-8.160706e-01	 -5.335295e-01	 3.000000e+00
-8.160706e-01	 5.335295e-01	 0
-8.160706e-01	 5.335295e-01	 3.000000e+00
-7.951457e-01	 -5.198493e-01	 7.500000e-01
-7.951457e-01	 5.198493e-01	 7.500000e-01
-7.951457e-01	 -5.198493e-01	 0
-7.951457e-01	 -5.198493e-01	 1.500000e+00
-7.951457e-01	 -5.198493e-01	 2.250000e+00
-7.951457e-01	 -5.198493e-01	 3
-7.951457e-01	 5.198493e-01	 0
-7.951457e-01	 5.198493e-01	 1.500000e+00
-7.951457e-01	 5.198493e-01	 2.250000e+00
-7.951457e-01	 5.198493e-01	 3
-7.071068e-01	 -7.071068e-01	 0
-7.071068e-01	 -7.071068e-01	 3.750000e-01
-7.071068e-01	 -7.071068e-01	 7.500000e-01
-7.071068e-01	 -7.071068e-01	 1.125000e+00
-7.071068e-01	 -7.071068e-01	 1.500000e+00
-7.071068e-01	 -7.071068e-01	 1.875000e+00
-7.071068e-01	 -7.071068e-01	 2.250000e+00
-7.071068e-01	 -7.071068e-01	 2.625000e+00
-7.071068e-01	 -7.071068e-01	 3.000000e+00
-7.071068e-01	 7.071068e-01	 0
-7.071068e-01	 7.071068e-01	 3.750000e-01
-7.071068e-01	 7.071068e-01	 7.500000e-01
-7.071068e-01	 7.071068e-01	 1.125000e+00
-7.071068e-01	 7.071068e-01	 1.500000e+00
-7.071068e-01	 7.071068e-01	 1.875000e+00
-7.071068e-01	 7.071068e-01	 2.250000e+00
-7.071068e-01	 7.071068e-01	 2.625000e+00
-7.071068e-01	 7.071068e-01	 3.000000e+00
-6.982679e-01	 -6.982679e-01	 7.500000e-01
-6.982679e-01	 6.982679e-01	 7.500000e-01
-6.982679e-01	 -6.982679e-01	 0
-6.982679e-01	 -6.982679e-01	 2.250000e+00
-6.982679e-01	 -6.982679e-01	 3.000000e+00
-6.982679e-01	 6.982679e-01	 0
-6.982679e-01	 6.982679e-01	 2.250000e+00
-6.982679e-01	 6.982679e-01	 3.000000e+00
-6.982679e-01	 -6.982679e-01	 1.500000e+00
-6.982679e-01	 6.982679e-01	 1.500000e+00
-6.894291e-01	 -6.894291e-01	 3.750000e-01
-6.894291e-01	 -6.894291e-01	 2.625000e+00
-6.894291e-01	 -6.894291e-01	 0
-6.894291e-01	 -6.894291e-01	 1.500000e+00
-6.894291e-01	 -6.894291e-01	 2.250000e+00
-6.894291e-01	 -6.894291e-01	 3.000000e+00
-6.894291e-01	 6.894291e-01	 3.750000e-01
-6.894291e-01	 6.894291e-01	 2.625000e+00
-6.894291e-01	 -6.894291e-01	 1.875000e+00
-6.894291e-01	 6.894291e-01	 1.875000e+00
-6.894291e-01	 -6.894291e-01	 7.500000e-01
-6.894291e-01	 -6.894291e-01	 1.125000e+00
-6.894291e-01	 6.894291e-01	 0
-6.894291e-01	 6.894291e-01	 1.500000e+00
-6.894291e-01	 6.894291e-01	 2.250000e+00
-6.894291e-01	 6.894291e-01	 3.000000e+00
-6.894291e-01	 6.894291e-01	 7.500000e-01
-6.894291e-01	 6.894291e-01	 1.125000e+00
-6.805903e-01	 6.805903e-01	 7.500000e-01
-6.805903e-01	 -6.805903e-01	 7.500000e-01
-6.805903e-01	 -6.805903e-01	 0
-6.805903e-01	 -6.805903e-01	 1.500000e+00
-6.805903e-01	 -6.805903e-01	 3.000000e+00
-6.805903e-01	 6.805903e-01	 0
-6.805903e-01	 6.805903e-01	 1.500000e+00
-6.805903e-01	 6.805903e-01	 3.000000e+00
-6.805903e-01	 6.805903e-01	 2.250000e+00
-6.805903e-01	 -6.805903e-01	 2.250000e+00
-6.717514e-01	 -6.717514e-01	 2.625000e+00
-6.717514e-01	 6.717514e-01	 2.625000e+00
-6.717514e-01	 -6.717514e-01	 0
-6.717514e-01	 -6.717514e-01	 3.750000e-01
-6.717514e-01	 -6.717514e-01	 7.500000e-01
-6.717514e-01	 -6.717514e-01	 1.125000e+00
-6.717514e-01	 -6.717514e-01	 1.875000e+00
-6.717514e-01	 -6.717514e-01	 3.000000e+00
-6.717514e-01	 -6.717514e-01	 2.250000e+00
-6.717514e-01	 6.717514e-01	 1.500000e+00
-6.717514e-01	 6.717514e-01	 0
-6.717514e-01	 6.717514e-01	 3.750000e-01
-6.717514e-01	 6.717514e-01	 7.500000e-01
-6.717514e-01	 6.717514e-01	 1.125000e+00
-6.717514e-01	 6.717514e-01	 1.875000e+00
-6.717514e-01	 6.717514e-01	 3.000000e+00
-6.717514e-01	 -6.717514e-01	 1.500000e+00
-6.717514e-01	 6.717514e-01	 2.250000e+00
-5.472098e-01	 -8.369955e-01	 0
-5.472098e-01	 -8.369955e-01	 7.500000e-01
-5.472098e-01	 -8.369955e-01	 1.500000e+00
-5.472098e-01	 -8.369955e-01	 2.250000e+00
-5.472098e-01	 -8.369955e-01	 3
-5.472098e-01	 8.369955e-01	 0
-5.472098e-01	 8.369955e-01	 7.500000e-01
-5.472098e-01	 8.369955e-01	 1.500000e+00
-5.472098e-01	 8.369955e-01	 2.250000e+00
-5.472098e-01	 8.369955e-01	 3
-5.335295e-01	 -8.160706e-01	 1.500000e+00
-5.335295e-01	 -8.160706e-01	 2.250000e+00
-5.335295e-01	 8.160706e-01	 0
-5.335295e-01	 8.160706e-01	 3.000000e+00
[...]
POINT_DATA 832
VECTORS displacement float
0	 0	 9.974631e-10
3.299621e-09	 -8.486923e-10	 9.127521e-10
6.040076e-09	 -1.579164e-09	 7.053126e-10
7.965988e-09	 -2.048926e-09	 3.780739e-10
8.541954e-09	 -2.233277e-09	 -4.025871e-16
7.965984e-09	 -2.048928e-09	 -3.780744e-10
6.040071e-09	 -1.579166e-09	 -7.053126e-10
3.299617e-09	 -8.486941e-10	 -9.127515e-10
0	 0	 -9.974622e-10
0	 0	 8.806308e-10
8.560290e-09	 -2.542717e-09	 -3.209019e-16
0	 0	 -8.806301e-10
6.053036e-09	 -1.797974e-09	 -6.226997e-10
6.053042e-09	 -1.797971e-09	 6.226998e-10
2.452787e-09	 -1.802435e-09	 2.494457e-10
0	 0	 3.527703e-10
3.468758e-09	 -2.549030e-09	 -7.900419e-16
0	 0	 -3.527686e-10
8.016075e-09	 -1.999540e-09	 -9.723715e-10
0	 0	 1.375141e-09
1.133644e-08	 -2.827774e-09	 9.306615e-17
0	 0	 -1.375141e-09
8.016075e-09	 -1.999537e-09	 9.723715e-10
2.452778e-09	 -1.802438e-09	 -2.494457e-10
6.061400e-09	 -2.015922e-09	 5.404344e-10
7.989350e-09	 -2.622138e-09	 2.941471e-10
0	 0	 7.642899e-10
3.309298e-09	 -1.086124e-09	 7.101344e-10
7.989346e-09	 -2.622140e-09	 -2.941474e-10
3.309294e-09	 -1.086127e-09	 -7.101340e-10
0	 0	 -7.642893e-10
8.572110e-09	 -2.850947e-09	 -2.397082e-16
6.061394e-09	 -2.015926e-09	 -5.404343e-10
8.580569e-09	 -3.156136e-09	 -1.583601e-16
6.067376e-09	 -2.231727e-09	 -4.580141e-10
0	 0	 6.477300e-10
6.067381e-09	 -2.231723e-09	 4.580141e-10
0	 0	 -6.477296e-10
0	 0	 2.732493e-10
0	 0	 -2.732482e-10
3.611587e-09	 -3.299795e-09	 -4.867262e-16
0	 0	 1.059279e-09
0	 0	 -1.059279e-09
1.132370e-08	 -2.970821e-09	 6.260703e-17
8.007062e-09	 -2.100686e-09	 7.490231e-10
2.553783e-09	 -2.333306e-09	 1.932161e-10
2.553773e-09	 -2.333309e-09	 -1.932160e-10
8.007062e-09	 -2.100689e-09	 -7.490230e-10
0	 0	 5.306129e-10
3.310689e-09	 -1.321742e-09	 5.070074e-10
7.992707e-09	 -3.190969e-09	 2.100092e-10
8.581528e-09	 -3.463419e-09	 -7.633844e-17
7.992703e-09	 -3.190972e-09	 -2.100094e-10
6.068054e-09	 -2.449009e-09	 -3.751999e-10
3.310685e-09	 -1.321745e-09	 -5.070072e-10
0	 0	 -5.306127e-10
6.068060e-09	 -2.449005e-09	 3.751999e-10
3.748389e-09	 -4.057693e-09	 -1.831166e-16
0	 0	 1.939017e-10
0	 0	 -1.939013e-10
7.975499e-09	 -2.198194e-09	 -5.257673e-10
0	 0	 7.435472e-10
1.127906e-08	 -3.108712e-09	 3.194007e-17
0	 0	 -7.435472e-10
2.650516e-09	 -2.869220e-09	 1.371091e-10
2.650506e-09	 -2.869224e-09	 -1.371090e-10
7.975499e-09	 -2.198189e-09	 5.257673e-10
-2.377110e-09	 -3.942846e-09	 -1.729189e-10
0	 0	 -4.562921e-10
-1.789160e-09	 -3.019684e-09	 -3.226479e-10
-2.530262e-09	 -4.270480e-09	 -8.685319e-16
-2.377117e-09	 -3.942849e-09	 1.729178e-10
-1.789170e-09	 -3.019688e-09	 3.226479e-10
-9.846365e-10	 -1.633182e-09	 4.174624e-10
0	 0	 4.562939e-10
-9.846289e-10	 -1.633179e-09	 -4.174612e-10
4.058288e-09	 -1.149198e-09	 1.176322e-09
7.432482e-09	 -2.087850e-09	 -9.097303e-10
4.058292e-09	 -1.149202e-09	 -1.176323e-09
0	 0	 1.286552e-09
7.432477e-09	 -2.087845e-09	 9.097304e-10
1.051111e-08	 -2.952662e-09	 5.928348e-16
9.797581e-09	 -2.774416e-09	 -4.872483e-10
0	 0	 -1.286554e-09
9.797577e-09	 -2.774412e-09	 4.872491e-10
7.487778e-09	 -1.990476e-09	 8.044871e-10
0	 0	 -4.025141e-10
-1.687587e-09	 -3.294654e-09	 -2.846209e-10
-1.687597e-09	 -3.294658e-09	 2.846210e-10
0	 0	 4.025155e-10
0	 0	 1.137716e-09
7.487783e-09	 -1.990481e-09	 -8.044870e-10
0	 0	 -1.137717e-09
-2.386616e-09	 -4.659347e-09	 -6.976717e-16
1.058932e-08	 -2.814961e-09	 4.820969e-16
-2.107402e-09	 -4.657871e-09	 -1.343951e-10
-8.729201e-10	 -1.929355e-09	 3.244581e-10
0	 0	 -3.489816e-10
-8.729124e-10	 -1.929353e-09	 -3.244573e-10
-2.240514e-09	 -5.045694e-09	 -5.276635e-16
0	 0	 3.489827e-10
4.113735e-09	 -1.040936e-09	 -9.186891e-10
9.931429e-09	 -2.513036e-09	 3.805337e-10
0	 0	 9.893970e-10
4.113731e-09	 -1.040932e-09	 9.186887e-10
0	 0	 -9.893977e-10
-1.584278e-09	 -3.567842e-09	 -2.467676e-10
-2.107410e-09	 -4.657874e-09	 1.343944e-10
9.931433e-09	 -2.513040e-09	 -3.805331e-10
1.066062e-08	 -2.675141e-09	 3.719649e-16
-1.584288e-09	 -3.567846e-09	 2.467677e-10
7.538196e-09	 -1.891607e-09	 6.996096e-10
7.538202e-09	 -1.891613e-09	 -6.996095e-10
1.072856e-08	 -2.536107e-09	 2.617622e-16
-2.094740e-09	 -5.427867e-09	 -3.574242e-16
0	 0	 -2.954554e-10
0	 0	 2.954562e-10
0	 0	 8.408365e-10
0	 0	 -8.408369e-10
-1.481210e-09	 -3.838083e-09	 2.089188e-10
-1.481200e-09	 -3.838079e-09	 -2.089188e-10
7.586241e-09	 -1.793301e-09	 -5.945613e-10
7.586235e-09	 -1.793295e-09	 5.945614e-10
-1.831295e-09	 -5.364160e-09	 -9.585749e-11
-1.831303e-09	 -5.364162e-09	 9.585714e-11
-7.585527e-10	 -2.221910e-09	 2.314203e-10
-1.375052e-09	 -4.108986e-09	 1.708797e-10
1.004488e-08	 -2.246518e-09	 2.735439e-10
0	 0	 -2.416601e-10
0	 0	 2.416605e-10
-7.585449e-10	 -2.221907e-09	 -2.314198e-10
-1.375042e-09	 -4.108982e-09	 -1.708796e-10
4.160723e-09	 -9.305367e-10	 6.603930e-10
7.629114e-09	 -1.691944e-09	 4.890476e-10
7.629119e-09	 -1.691951e-09	 -4.890476e-10
4.160727e-09	 -9.305412e-10	 -6.603932e-10
0	 0	 6.916177e-10
1.004488e-08	 -2.246522e-09	 -2.735436e-10
0	 0	 -6.916179e-10
-1.944610e-09	 -5.810981e-09	 -1.858735e-16
1.078920e-08	 -2.392775e-09	 1.506720e-16
0	 0	 -1.143063e-09
-4.961737e-09	 -4.861549e-09	 -8.082681e-10
-7.016961e-09	 -6.875271e-09	 -6.934617e-16
-4.961745e-09	 -4.861552e-09	 8.082681e-10
0	 0	 1.143064e-09
0	 0	 8.015332e-10
4.983125e-09	 -1.022080e-09	 5.667702e-10
7.047210e-09	 -1.445444e-09	 9.423278e-16
4.983134e-09	 -1.022087e-09	 -5.667702e-10
0	 0	 -8.015350e-10
-4.797815e-09	 -5.124571e-09	 -6.239118e-10
5.226902e-09	 -6.584359e-10	 4.387247e-10
-6.785141e-09	 -7.247241e-09	 -4.321648e-16
-4.797824e-09	 -5.124574e-09	 6.239118e-10
7.391961e-09	 -9.311741e-10	 6.027826e-16
5.226911e-09	 -6.584431e-10	 -4.387246e-10
0	 0	 -8.823441e-10
0	 0	 8.823450e-10
0	 0	 6.204498e-10
0	 0	 -6.204509e-10
-4.617208e-09	 -5.379333e-09	 -4.396059e-10
5.462037e-09	 -2.851998e-10	 3.107717e-10
0	 0	 -6.216965e-10
-6.529725e-09	 -7.607528e-09	 -1.706519e-16
-4.617217e-09	 -5.379336e-09	 4.396060e-10
0	 0	 6.216969e-10
0	 0	 4.394973e-10
7.724493e-09	 -4.033386e-10	 2.628664e-16
5.462046e-09	 -2.852071e-10	 -3.107716e-10
0	 0	 -4.394977e-10
0	 0	 -1.380244e-09
-3.178856e-09	 -3.201184e-09	 -1.263012e-09
-5.815209e-09	 -5.856625e-09	 -9.759803e-10
-7.674439e-09	 -7.728343e-09	 -5.231567e-10
-8.223951e-09	 -8.282518e-09	 -2.123682e-16
-7.674441e-09	 -7.728343e-09	 5.231565e-10
-5.815213e-09	 -5.856625e-09	 9.759803e-10
-3.178859e-09	 -3.201185e-09	 1.263012e-09
0	 0	 1.380245e-09
0	 0	 -1.536954e-11
8.272707e-10	 8.911876e-10	 -1.405991e-11
1.539533e-09	 1.656542e-09	 -1.086728e-11
1.997212e-09	 2.151514e-09	 -5.822987e-12
2.177234e-09	 2.342699e-09	 8.982401e-16
1.997219e-09	 2.151508e-09	 5.824177e-12
1.539541e-09	 1.656535e-09	 1.086733e-11
8.272768e-10	 8.911824e-10	 1.405883e-11
0	 0	 1.536785e-11
-5.823674e-09	 -5.872950e-09	 -8.630184e-10
1.753886e-09	 1.871111e-09	 -9.723899e-12
0	 0	 -1.220492e-09
-5.823678e-09	 -5.872950e-09	 8.630184e-10
0	 0	 1.220493e-09
0	 0	 -1.375239e-11
1.753894e-09	 1.871104e-09	 9.723951e-12
0	 0	 1.375103e-11
-8.235921e-09	 -8.305606e-09	 -1.686711e-16
2.480375e-09	 2.646145e-09	 7.313204e-16
-3.183976e-09	 -3.214708e-09	 -9.858843e-10
-3.183980e-09	 -3.214708e-09	 9.858845e-10
0	 0	 -1.061295e-09
-8.242453e-09	 -8.323167e-09	 -1.251388e-16
-5.828297e-09	 -5.885367e-09	 7.504492e-10
0	 0	 1.061296e-09
1.058687e-09	 1.122788e-09	 -1.129423e-11
1.058693e-09	 1.122783e-09	 1.129352e-11
-7.686804e-09	 -7.760991e-09	 4.083666e-10
2.555907e-09	 2.710642e-09	 4.678483e-12
-5.828292e-09	 -5.885368e-09	 -7.504492e-10
-7.686801e-09	 -7.760991e-09	 -4.083668e-10
0	 0	 -1.213730e-11
2.782450e-09	 2.948469e-09	 5.651611e-16
1.967494e-09	 2.084879e-09	 8.582033e-12
0	 0	 1.213628e-11
1.967485e-09	 2.084886e-09	 -8.581981e-12
2.555901e-09	 2.710647e-09	 -4.677668e-12
2.179107e-09	 2.296650e-09	 -7.438781e-12
-5.831367e-09	 -5.896184e-09	 -6.377480e-10
0	 0	 -9.019118e-10
-8.246802e-09	 -8.338463e-09	 -8.155775e-17
0	 0	 9.019120e-10
0	 0	 -1.052041e-11
3.081729e-09	 3.247949e-09	 3.988344e-16
0	 0	 1.051972e-11
2.179116e-09	 2.296644e-09	 7.438833e-12
-5.831372e-09	 -5.896183e-09	 6.377480e-10
-3.182529e-09	 -3.221599e-09	 7.081566e-10
1.288430e-09	 1.352618e-09	 8.522556e-12
0	 0	 -7.418187e-10
-3.182525e-09	 -3.221599e-09	 -7.081565e-10
-5.829901e-09	 -5.902514e-09	 -5.245451e-10
-7.683299e-09	 -7.777629e-09	 -2.933281e-10
-7.683302e-09	 -7.777628e-09	 2.933280e-10
0	 0	 7.418189e-10
-5.829906e-09	 -5.902513e-09	 5.245451e-10
3.382705e-09	 3.549071e-09	 2.312711e-16
0	 0	 -8.899674e-12
1.288424e-09	 1.352623e-09	 -8.522890e-12
2.391929e-09	 2.509575e-09	 -6.292867e-12
3.110535e-09	 3.265516e-09	 -3.530008e-12
3.110542e-09	 3.265511e-09	 3.530447e-12
0	 0	 8.899316e-12
-8.244729e-09	 -8.347415e-09	 -3.768168e-17
2.391938e-09	 2.509569e-09	 6.292919e-12
0	 0	 -1.167519e-09
-4.910047e-09	 -5.122993e-09	 -8.255604e-10
-6.943855e-09	 -7.245003e-09	 3.286993e-16
-4.910047e-09	 -5.122988e-09	 8.255604e-10
0	 0	 1.167518e-09
0	 0	 -8.282343e-10
-1.128316e-09	 5.090901e-09	 -5.856497e-10
-1.595676e-09	 7.199617e-09	 6.009601e-16
-1.128310e-09	 5.090896e-09	 5.856498e-10
0	 0	 8.282332e-10
-7.300105e-09	 -7.023782e-09	 2.146861e-16
-5.161954e-09	 -4.966562e-09	 6.368881e-10
0	 0	 -6.414269e-10
0	 0	 6.414263e-10
-1.085965e-09	 7.541624e-09	 3.890504e-16
-7.678898e-10	 5.332732e-09	 4.535571e-10
-5.161954e-09	 -4.966567e-09	 -6.368880e-10
0	 0	 -9.006959e-10
0	 0	 9.006956e-10
-7.678961e-10	 5.332736e-09	 -4.535571e-10
-3.977542e-10	 5.565694e-09	 -3.215566e-10
-5.405156e-09	 -4.792972e-09	 -4.482717e-10
0	 0	 -6.339520e-10
-7.644046e-09	 -6.778283e-09	 1.006708e-16
-5.405157e-09	 -4.792967e-09	 4.482718e-10
0	 0	 6.339519e-10
0	 0	 -4.547499e-10
-5.625045e-10	 7.871077e-09	 1.768418e-16
-3.977473e-10	 5.565690e-09	 3.215567e-10
0	 0	 4.547497e-10
-4.035238e-09	 -2.669984e-09	 -1.865489e-10
-2.880482e-09	 9.884924e-09	 -4.925091e-10
0	 0	 -4.922516e-10
-3.089266e-09	 -2.011270e-09	 -3.480740e-10
-4.368881e-09	 -2.844359e-09	 7.145897e-16
-4.035237e-09	 -2.669978e-09	 1.865498e-10
0	 0	 4.922503e-10
0	 0	 -1.300447e-09
-2.169068e-09	 7.498335e-09	 -9.195549e-10
-3.067523e-09	 1.060425e-08	 7.374802e-17
-2.880480e-09	 9.884924e-09	 4.925092e-10
-2.169065e-09	 7.498335e-09	 9.195550e-10
-1.193133e-09	 4.094470e-09	 1.189022e-09
0	 0	 1.300447e-09
-1.671451e-09	 -1.105946e-09	 -4.503705e-10
-3.089265e-09	 -2.011262e-09	 3.480740e-10
-1.671449e-09	 -1.105939e-09	 4.503696e-10
-1.193135e-09	 4.094469e-09	 -1.189022e-09
-4.756520e-09	 -2.702002e-09	 5.806577e-16
-2.935421e-09	 1.068057e-08	 6.460813e-17
-3.363369e-09	 -1.910608e-09	 -3.068918e-10
0	 0	 -4.340111e-10
-3.363367e-09	 -1.910599e-09	 3.068918e-10
0	 0	 4.340100e-10
0	 0	 -1.149855e-09
-2.075658e-09	 7.552305e-09	 -8.130704e-10
-2.075654e-09	 7.552306e-09	 8.130705e-10
0	 0	 1.149855e-09
-3.635595e-09	 -1.808009e-09	 2.658997e-10
-1.980741e-09	 7.601300e-09	 7.069588e-10
-2.629552e-09	 1.001504e-08	 -3.845256e-10
-1.089194e-09	 4.148366e-09	 9.283270e-10
0	 0	 -3.760393e-10
-1.966525e-09	 -9.950572e-10	 -3.495499e-10
0	 0	 3.760385e-10
-5.141509e-09	 -2.556917e-09	 4.473694e-16
0	 0	 -9.997906e-10
-1.089197e-09	 4.148366e-09	 -9.283270e-10
-2.801193e-09	 1.074986e-08	 5.555296e-17
0	 0	 9.997906e-10
-4.747611e-09	 -2.402276e-09	 -1.447879e-10
-4.747610e-09	 -2.402270e-09	 1.447885e-10
-3.635596e-09	 -1.808017e-09	 -2.658997e-10
-1.980745e-09	 7.601299e-09	 -7.069587e-10
-2.629550e-09	 1.001504e-08	 3.845257e-10
-1.966524e-09	 -9.950507e-10	 3.495493e-10
-5.522338e-09	 -2.412067e-09	 3.138596e-16
-3.904882e-09	 -1.705585e-09	 2.249070e-10
-1.886321e-09	 7.647918e-09	 6.006754e-10
0	 0	 -8.494832e-10
0	 0	 8.494832e-10
-2.667664e-09	 1.081579e-08	 4.657898e-17
0	 0	 -3.180668e-10
0	 0	 3.180662e-10
-3.904883e-09	 -1.705593e-09	 -2.249070e-10
-1.886325e-09	 7.647917e-09	 -6.006753e-10
-5.451000e-09	 -2.127411e-09	 -1.030048e-10
0	 0	 -2.597984e-10
-5.450999e-09	 -2.127404e-09	 1.030051e-10
0	 0	 2.597981e-10
-5.903962e-09	 -2.262530e-09	 1.793403e-16
0	 0	 -6.985064e-10
0	 0	 6.985065e-10
-2.373278e-09	 1.012448e-08	 -2.762657e-10
-2.373275e-09	 1.012448e-08	 2.762658e-10
-9.830417e-10	 4.193699e-09	 6.669646e-10
-2.257878e-09	 -8.812044e-10	 -2.486760e-10
-4.174732e-09	 -1.599855e-09	 -1.837051e-10
-4.174731e-09	 -1.599846e-09	 1.837051e-10
-2.257878e-09	 -8.811977e-10	 2.486758e-10
-2.529792e-09	 1.087427e-08	 3.752287e-17
-9.830450e-10	 4.193698e-09	 -6.669646e-10
-1.788830e-09	 7.689271e-09	 4.939187e-10
-1.788835e-09	 7.689270e-09	 -4.939186e-10
-1.858692e-09	 2.247761e-09	 2.248996e-10
-2.054059e-09	 8.005028e-09	 -9.699189e-10
0	 0	 3.180552e-10
-2.628586e-09	 3.178822e-09	 8.944429e-16
0	 0	 -3.180569e-10
0	 0	 -1.371672e-09
-2.904877e-09	 1.132082e-08	 -4.524326e-16
0	 0	 1.371673e-09
-1.858690e-09	 2.247772e-09	 -2.248996e-10
-2.054057e-09	 8.005034e-09	 9.699189e-10
-2.397131e-09	 2.349906e-09	 1.743985e-10
0	 0	 2.466361e-10
0	 0	 -2.466372e-10
-2.167644e-09	 7.993747e-09	 -7.466531e-10
-2.167642e-09	 7.993753e-09	 7.466532e-10
0	 0	 -1.055927e-09
0	 0	 1.055927e-09
-2.397129e-09	 2.349917e-09	 -1.743984e-10
-3.065510e-09	 1.130487e-08	 -2.747902e-16
-3.390054e-09	 3.323277e-09	 5.682881e-16
-3.221044e-09	 1.125661e-08	 -9.711476e-17
0	 0	 1.753875e-10
-4.158569e-09	 3.462612e-09	 2.418727e-16
0	 0	 -1.753879e-10
0	 0	 -7.403136e-10
0	 0	 7.403139e-10
-2.940552e-09	 2.448442e-09	 -1.240178e-10
-2.940553e-09	 2.448431e-09	 1.240178e-10
-2.277623e-09	 7.959625e-09	 -5.234809e-10
-2.277621e-09	 7.959631e-09	 5.234809e-10
0	 0	 9.760623e-10
-8.715506e-10	 3.235943e-09	 8.932002e-10
-1.621619e-09	 5.923502e-09	 6.901808e-10
-2.104109e-09	 7.812262e-09	 3.699763e-10
-2.293314e-09	 8.377103e-09	 7.392556e-16
-2.104108e-09	 7.812269e-09	 -3.699753e-10
-1.621617e-09	 5.923511e-09	 -6.901807e-10
-8.715496e-10	 3.235950e-09	 -8.932011e-10
0	 0	 -9.760637e-10
0	 0	 8.615165e-10
-2.614226e-09	 8.395145e-09	 6.001980e-16
0	 0	 -8.615176e-10
-1.848536e-09	 5.936269e-09	 -6.091846e-10
-1.848538e-09	 5.936260e-09	 6.091846e-10
-2.074533e-09	 5.944453e-09	 5.285334e-10
-2.698369e-09	 7.835192e-09	 2.876595e-10
0	 0	 7.474587e-10
-1.117701e-09	 3.245441e-09	 6.944703e-10
-2.698367e-09	 7.835199e-09	 -2.876588e-10
-1.117700e-09	 3.245448e-09	 -6.944709e-10
0	 0	 -7.474595e-10
-2.933831e-09	 8.406733e-09	 4.618960e-16
-2.074531e-09	 5.944462e-09	 -5.285334e-10
-3.250309e-09	 8.415022e-09	 3.233297e-16
-2.298315e-09	 5.950324e-09	 -4.477299e-10
0	 0	 6.331854e-10
-2.298317e-09	 5.950315e-09	 4.477299e-10
0	 0	 -6.331860e-10
0	 0	 5.183605e-10
-1.361977e-09	 3.246756e-09	 4.952397e-10
-3.288101e-09	 7.838368e-09	 2.051352e-10
-3.568977e-09	 8.415872e-09	 1.836814e-16
-3.288100e-09	 7.838374e-09	 -2.051349e-10
-2.523647e-09	 5.950925e-09	 -3.665363e-10
-1.361975e-09	 3.246763e-09	 -4.952399e-10
0	 0	 -5.183608e-10
-2.523649e-09	 5.950916e-09	 3.665363e-10
-2.523638e-09	 5.951014e-09	 -3.665485e-10
0	 0	 -5.183777e-10
-1.361970e-09	 3.246809e-09	 -4.952559e-10
-3.288086e-09	 7.838497e-09	 -2.051419e-10
-3.568961e-09	 8.416011e-09	 -1.533885e-16
-3.288085e-09	 7.838504e-09	 2.051417e-10
-2.523635e-09	 5.951024e-09	 3.665486e-10
-1.361969e-09	 3.246817e-09	 4.952563e-10
0	 0	 5.183782e-10
0	 0	 -6.332046e-10
-2.298306e-09	 5.950412e-09	 -4.477435e-10
0	 0	 6.332053e-10
-3.250293e-09	 8.415161e-09	 -3.096416e-16
-2.298303e-09	 5.950422e-09	 4.477436e-10
-2.933815e-09	 8.406872e-09	 -4.647006e-16
-2.074520e-09	 5.944561e-09	 5.285484e-10
0	 0	 -7.474797e-10
-1.117695e-09	 3.245494e-09	 -6.944898e-10
-2.698353e-09	 7.835328e-09	 2.876669e-10
-1.117694e-09	 3.245502e-09	 6.944906e-10
0	 0	 7.474808e-10
-2.074522e-09	 5.944551e-09	 -5.285483e-10
-2.698354e-09	 7.835321e-09	 -2.876676e-10
-1.848527e-09	 5.936357e-09	 -6.092008e-10
-1.848526e-09	 5.936367e-09	 6.092009e-10
0	 0	 -8.615394e-10
-2.614211e-09	 8.395284e-09	 -6.194612e-16
0	 0	 8.615408e-10
0	 0	 -9.760871e-10
-8.715452e-10	 3.235996e-09	 -8.932229e-10
-1.621609e-09	 5.923599e-09	 -6.901984e-10
-2.104095e-09	 7.812390e-09	 -3.699858e-10
-2.293300e-09	 8.377241e-09	 -7.750315e-16
-2.104094e-09	 7.812398e-09	 3.699848e-10
-1.621607e-09	 5.923609e-09	 6.901984e-10
-8.715441e-10	 3.236003e-09	 8.932241e-10
0	 0	 9.760888e-10
-2.277638e-09	 7.959537e-09	 5.234703e-10
-2.277635e-09	 7.959542e-09	 -5.234703e-10
-2.940544e-09	 2.448529e-09	 -1.240303e-10
-2.940542e-09	 2.448541e-09	 1.240304e-10
0	 0	 7.402987e-10
0	 0	 -7.402989e-10
0	 0	 -1.754051e-10
-4.158556e-09	 3.462751e-09	 -2.094092e-16
0	 0	 1.754056e-10
-3.221064e-09	 1.125649e-08	 1.249248e-16
-3.390039e-09	 3.323416e-09	 -5.605052e-16
-3.065527e-09	 1.130474e-08	 2.676606e-16
-2.397119e-09	 2.350016e-09	 1.744137e-10
0	 0	 1.055909e-09
0	 0	 -1.055909e-09
-2.167656e-09	 7.993659e-09	 7.466402e-10
-2.167654e-09	 7.993664e-09	 -7.466402e-10
0	 0	 -2.466575e-10
0	 0	 2.466588e-10
-2.397121e-09	 2.350004e-09	 -1.744136e-10
-2.054068e-09	 8.004946e-09	 -9.699037e-10
-1.858679e-09	 2.247870e-09	 2.249175e-10
0	 0	 1.371651e-09
-2.904891e-09	 1.132070e-08	 4.104093e-16
0	 0	 -1.371651e-09
0	 0	 -3.180804e-10
-2.628571e-09	 3.178961e-09	 -9.112500e-16
0	 0	 3.180823e-10
-2.054069e-09	 8.004941e-09	 9.699037e-10
-1.858681e-09	 2.247859e-09	 -2.249174e-10
-1.788857e-09	 7.689201e-09	 4.939116e-10
-1.788852e-09	 7.689201e-09	 -4.939115e-10
-9.830564e-10	 4.193660e-09	 6.669552e-10
-2.529822e-09	 1.087417e-08	 -1.890839e-18
-2.257876e-09	 -8.811564e-10	 2.486618e-10
-4.174727e-09	 -1.599766e-09	 1.836944e-10
-4.174726e-09	 -1.599757e-09	 -1.836943e-10
-2.257875e-09	 -8.811494e-10	 -2.486614e-10
-2.373306e-09	 1.012439e-08	 2.762619e-10
-2.373303e-09	 1.012439e-08	 -2.762619e-10
-9.830532e-10	 4.193661e-09	 -6.669551e-10
0	 0	 6.984965e-10
0	 0	 -6.984964e-10
-5.903955e-09	 -2.262405e-09	 -1.419184e-16
0	 0	 2.597833e-10
-5.450993e-09	 -2.127288e-09	 -1.029991e-10
0	 0	 -2.597829e-10
-5.450994e-09	 -2.127295e-09	 1.029989e-10
-1.886345e-09	 7.647848e-09	 6.006675e-10
-3.904877e-09	 -1.705506e-09	 2.248951e-10
0	 0	 3.180500e-10
0	 0	 -3.180493e-10
-2.667692e-09	 1.081569e-08	 -2.362269e-17
0	 0	 8.494722e-10
0	 0	 -8.494721e-10
-1.886341e-09	 7.647848e-09	 -6.006675e-10
-3.904876e-09	 -1.705496e-09	 -2.248950e-10
-5.522330e-09	 -2.411943e-09	 -2.842606e-16
-1.966520e-09	 -9.950029e-10	 -3.495321e-10
-1.980763e-09	 7.601231e-09	 7.069501e-10
-2.629574e-09	 1.001495e-08	 -3.845210e-10
-3.635590e-09	 -1.807930e-09	 2.658866e-10
-4.747601e-09	 -2.402154e-09	 -1.447814e-10
-4.747602e-09	 -2.402161e-09	 1.447808e-10
0	 0	 9.997785e-10
-1.089207e-09	 4.148329e-09	 9.283157e-10
-2.801219e-09	 1.074976e-08	 -4.515922e-17
0	 0	 -9.997783e-10
-5.141499e-09	 -2.556793e-09	 -4.255938e-16
0	 0	 3.760209e-10
-1.966521e-09	 -9.950098e-10	 3.495329e-10
0	 0	 -3.760200e-10
-2.629576e-09	 1.001495e-08	 3.845209e-10
-1.089204e-09	 4.148329e-09	 -9.283156e-10
-1.980759e-09	 7.601231e-09	 -7.069501e-10
-3.635588e-09	 -1.807921e-09	 -2.658866e-10
0	 0	 1.149842e-09
-2.075675e-09	 7.552238e-09	 8.130610e-10
-2.075671e-09	 7.552238e-09	 -8.130610e-10
0	 0	 -1.149842e-09
0	 0	 4.339911e-10
-3.363360e-09	 -1.910512e-09	 -3.068775e-10
0	 0	 -4.339898e-10
-3.363361e-09	 -1.910521e-09	 3.068776e-10
-2.935445e-09	 1.068048e-08	 -6.675516e-17
-4.756510e-09	 -2.701878e-09	 -5.666804e-16
-1.193144e-09	 4.094433e-09	 1.189009e-09
-1.671446e-09	 -1.105899e-09	 4.503506e-10
-3.089256e-09	 -2.011175e-09	 -3.480586e-10
-1.671445e-09	 -1.105892e-09	 -4.503496e-10
0	 0	 1.300433e-09
-2.169084e-09	 7.498268e-09	 9.195448e-10
-3.067545e-09	 1.060415e-08	 -8.851115e-17
-2.880500e-09	 9.884836e-09	 -4.925037e-10
-2.169080e-09	 7.498268e-09	 -9.195447e-10
-1.193141e-09	 4.094433e-09	 -1.189009e-09
0	 0	 -1.300433e-09
0	 0	 4.922300e-10
-3.089258e-09	 -2.011184e-09	 3.480587e-10
-4.368869e-09	 -2.844237e-09	 -7.083625e-16
-4.035225e-09	 -2.669864e-09	 -1.865416e-10
0	 0	 -4.922285e-10
-2.880502e-09	 9.884837e-09	 4.925036e-10
-4.035227e-09	 -2.669871e-09	 1.865407e-10
0	 0	 4.547465e-10
-5.625531e-10	 7.871012e-09	 -1.320254e-16