# vtk DataFile Version 3.0
Unstructured Grid Example
ASCII
DATASET UNSTRUCTURED_GRID
POINTS 1641 float
-9.500000e-01	 0	 0
-9.500000e-01	 0	 3.750000e-01
-9.500000e-01	 0	 1.125000e+00
-9.500000e-01	 0	 1.500000e+00
-9.500000e-01	 0	 1.875000e+00
-9.500000e-01	 0	 2.250000e+00
-9.500000e-01	 0	 2.625000e+00
-9.500000e-01	 0	 3
-9.500000e-01	 0	 7.500000e-01
-9.341401e-01	 -1.728649e-01	 1.500000e+00
-9.341401e-01	 -1.728649e-01	 0
-9.341401e-01	 -1.728649e-01	 3.000000e+00
-9.341401e-01	 1.728649e-01	 2.250000e+00
-9.341401e-01	 1.728649e-01	 0
-9.341401e-01	 1.728649e-01	 1.500000e+00
-9.341401e-01	 1.728649e-01	 3.000000e+00
-9.341401e-01	 -1.728649e-01	 7.500000e-01
-9.341401e-01	 -1.728649e-01	 2.250000e+00
-9.341401e-01	 1.728649e-01	 7.500000e-01
-8.832989e-01	 -3.496900e-01	 1.125000e+00
-8.832989e-01	 -3.496900e-01	 1.875000e+00
-8.832989e-01	 -3.496900e-01	 2.625000e+00
-8.832989e-01	 -3.496900e-01	 2.250000e+00
-8.832989e-01	 3.496900e-01	 1.125000e+00
-8.832989e-01	 -3.496900e-01	 0
-8.832989e-01	 -3.496900e-01	 3.000000e+00
-8.832989e-01	 -3.496900e-01	 3.750000e-01
-8.832989e-01	 -3.496900e-01	 7.500000e-01
-8.832989e-01	 3.496900e-01	 3.750000e-01
-8.832989e-01	 3.496900e-01	 7.500000e-01
-8.832989e-01	 3.496900e-01	 2.250000e+00
-8.832989e-01	 3.496900e-01	 2.625000e+00
-8.832989e-01	 3.496900e-01	 0
-8.832989e-01	 3.496900e-01	 1.875000e+00
-8.832989e-01	 3.496900e-01	 3.000000e+00
-8.832989e-01	 -3.496900e-01	 1.500000e+00
-8.832989e-01	 3.496900e-01	 1.500000e+00
-8.787500e-01	 0	 2.250000e+00
-8.787500e-01	 0	 0
-8.787500e-01	 0	 1.500000e+00
-8.787500e-01	 0	 3
-8.787500e-01	 0	 7.500000e-01
-8.149622e-01	 -3.223238e-01	 7.500000e-01
-8.149622e-01	 3.223238e-01	 7.500000e-01
-8.149622e-01	 -3.223238e-01	 2.250000e+00
-8.149622e-01	 3.223238e-01	 2.250000e+00
-8.149622e-01	 -3.223238e-01	 0
-8.149622e-01	 -3.223238e-01	 1.500000e+00
-8.149622e-01	 -3.223238e-01	 3
-8.149622e-01	 3.223238e-01	 1.500000e+00
-8.149622e-01	 3.223238e-01	 0
-8.149622e-01	 3.223238e-01	 3
-8.075000e-01	 0	 7.500000e-01
-8.075000e-01	 0	 2.250000e+00
-8.075000e-01	 0	 3.750000e-01
-8.075000e-01	 0	 1.875000e+00
-8.075000e-01	 0	 2.625000e+00
-8.075000e-01	 0	 0
-8.075000e-01	 0	 1.125000e+00
-8.075000e-01	 0	 1.500000e+00
-8.075000e-01	 0	 3
-7.951457e-01	 -5.198493e-01	 7.500000e-01
-7.951457e-01	 5.198493e-01	 7.500000e-01
-7.951457e-01	 -5.198493e-01	 0
-7.951457e-01	 -5.198493e-01	 1.500000e+00
-7.951457e-01	 -5.198493e-01	 2.250000e+00
-7.951457e-01	 -5.198493e-01	 3
-7.951457e-01	 5.198493e-01	 0
-7.951457e-01	 5.198493e-01	 1.500000e+00
-7.951457e-01	 5.198493e-01	 2.250000e+00
-7.951457e-01	 5.198493e-01	 3
-7.894916e-01	 -1.451644e-01	 7.500000e-01
-7.894916e-01	 1.451644e-01	 7.500000e-01
-7.894916e-01	 1.451644e-01	 0
-7.894916e-01	 1.451644e-01	 3
-7.894916e-01	 -1.451644e-01	 0
-7.894916e-01	 -1.451644e-01	 1.500000e+00
-7.894916e-01	 -1.451644e-01	 2.250000e+00
-7.894916e-01	 -1.451644e-01	 3
-7.894916e-01	 1.451644e-01	 1.500000e+00
-7.894916e-01	 1.451644e-01	 2.250000e+00
-7.430021e-01	 -2.929055e-01	 1.500000e+00
-7.430021e-01	 2.929055e-01	 1.500000e+00
-7.430021e-01	 -2.929055e-01	 2.250000e+00
-7.430021e-01	 -2.929055e-01	 0
-7.430021e-01	 -2.929055e-01	 3.000000e+00
-7.430021e-01	 2.929055e-01	 3.750000e-01
-7.430021e-01	 -2.929055e-01	 3.750000e-01
-7.430021e-01	 -2.929055e-01	 1.125000e+00
-7.430021e-01	 -2.929055e-01	 1.875000e+00
-7.430021e-01	 -2.929055e-01	 2.625000e+00
-7.430021e-01	 2.929055e-01	 1.125000e+00
-7.430021e-01	 2.929055e-01	 0
-7.430021e-01	 2.929055e-01	 1.875000e+00
-7.430021e-01	 2.929055e-01	 2.250000e+00
-7.430021e-01	 2.929055e-01	 2.625000e+00
-7.430021e-01	 2.929055e-01	 3.000000e+00
-7.430021e-01	 2.929055e-01	 7.500000e-01
-7.430021e-01	 -2.929055e-01	 7.500000e-01
-7.362500e-01	 0	 0
-7.362500e-01	 0	 7.500000e-01
-7.362500e-01	 0	 1.500000e+00
-7.362500e-01	 0	 2.250000e+00
-7.362500e-01	 0	 3
-6.717514e-01	 -6.717514e-01	 2.625000e+00
-6.717514e-01	 6.717514e-01	 2.625000e+00
-6.717514e-01	 -6.717514e-01	 0
-6.717514e-01	 -6.717514e-01	 3.750000e-01
-6.717514e-01	 -6.717514e-01	 7.500000e-01
-6.717514e-01	 -6.717514e-01	 1.125000e+00
-6.717514e-01	 -6.717514e-01	 1.875000e+00
-6.717514e-01	 -6.717514e-01	 3.000000e+00
-6.717514e-01	 -6.717514e-01	 2.250000e+00
-6.717514e-01	 6.717514e-01	 1.500000e+00
-6.717514e-01	 6.717514e-01	 0
-6.717514e-01	 6.717514e-01	 3.750000e-01
-6.717514e-01	 6.717514e-01	 7.500000e-01
-6.717514e-01	 6.717514e-01	 1.125000e+00
-6.717514e-01	 6.717514e-01	 1.875000e+00
-6.717514e-01	 6.717514e-01	 3.000000e+00
-6.717514e-01	 -6.717514e-01	 1.500000e+00
-6.717514e-01	 6.717514e-01	 2.250000e+00
-6.682985e-01	 -2.618048e-01	 0
-6.682985e-01	 -2.618048e-01	 1.500000e+00
-6.682985e-01	 -2.618048e-01	 3
-6.682985e-01	 -2.618048e-01	 7.500000e-01
-6.682985e-01	 -2.618048e-01	 2.250000e+00
-6.682985e-01	 2.618048e-01	 7.500000e-01
-6.682985e-01	 2.618048e-01	 2.250000e+00
-6.682985e-01	 2.618048e-01	 0
-6.682985e-01	 2.618048e-01	 1.500000e+00
-6.682985e-01	 2.618048e-01	 3
-6.665713e-01	 -4.348738e-01	 2.250000e+00
-6.665713e-01	 -4.348738e-01	 7.500000e-01
-6.665713e-01	 4.348738e-01	 7.500000e-01
-6.665713e-01	 4.348738e-01	 2.250000e+00
-6.665713e-01	 -4.348738e-01	 0
-6.665713e-01	 -4.348738e-01	 3
-6.665713e-01	 4.348738e-01	 0
-6.665713e-01	 4.348738e-01	 1.500000e+00
-6.665713e-01	 4.348738e-01	 3
-6.665713e-01	 -4.348738e-01	 1.500000e+00
-6.650000e-01	 0	 7.500000e-01
-6.650000e-01	 0	 0
-6.650000e-01	 0	 3.750000e-01
-6.650000e-01	 0	 1.125000e+00
-6.650000e-01	 0	 1.500000e+00
-6.650000e-01	 0	 1.875000e+00
-6.650000e-01	 0	 2.625000e+00
-6.650000e-01	 0	 3
-6.650000e-01	 0	 2.250000e+00
-6.383743e-01	 -1.144482e-01	 0
-6.383743e-01	 -1.144482e-01	 3.000000e+00
-6.383743e-01	 -1.144482e-01	 7.500000e-01
-6.383743e-01	 -1.144482e-01	 1.500000e+00
-6.383743e-01	 -1.144482e-01	 2.250000e+00
-6.383743e-01	 1.144482e-01	 7.500000e-01
-6.383743e-01	 1.144482e-01	 1.500000e+00
-6.383743e-01	 1.144482e-01	 0
-6.383743e-01	 1.144482e-01	 2.250000e+00
-6.383743e-01	 1.144482e-01	 3.000000e+00
-6.189903e-01	 -6.189903e-01	 0
-6.189903e-01	 -6.189903e-01	 1.500000e+00
-6.189903e-01	 -6.189903e-01	 3.000000e+00
-6.189903e-01	 6.189903e-01	 2.250000e+00
-6.189903e-01	 6.189903e-01	 0
-6.189903e-01	 6.189903e-01	 1.500000e+00
-6.189903e-01	 6.189903e-01	 3.000000e+00
-6.189903e-01	 -6.189903e-01	 2.250000e+00
-6.189903e-01	 -6.189903e-01	 7.500000e-01
-6.189903e-01	 6.189903e-01	 7.500000e-01
-5.937500e-01	 0	 0
-5.937500e-01	 0	 7.500000e-01
-5.937500e-01	 0	 1.500000e+00
-5.937500e-01	 0	 2.250000e+00
-5.937500e-01	 0	 3
-5.917666e-01	 2.294176e-01	 1.875000e+00
-5.917666e-01	 2.294176e-01	 2.250000e+00
-5.917666e-01	 -2.294176e-01	 2.250000e+00
-5.917666e-01	 -2.294176e-01	 0
-5.917666e-01	 -2.294176e-01	 2.625000e+00
-5.917666e-01	 -2.294176e-01	 3
-5.917666e-01	 -2.294176e-01	 1.500000e+00
-5.917666e-01	 -2.294176e-01	 1.875000e+00
-5.917666e-01	 2.294176e-01	 0
-5.917666e-01	 2.294176e-01	 2.625000e+00
-5.917666e-01	 2.294176e-01	 3
-5.917666e-01	 2.294176e-01	 1.500000e+00
-5.917666e-01	 -2.294176e-01	 3.750000e-01
-5.917666e-01	 -2.294176e-01	 7.500000e-01
-5.917666e-01	 -2.294176e-01	 1.125000e+00
-5.917666e-01	 2.294176e-01	 7.500000e-01
-5.917666e-01	 2.294176e-01	 1.125000e+00
-5.917666e-01	 2.294176e-01	 3.750000e-01
-5.620800e-01	 5.620800e-01	 1.125000e+00
-5.620800e-01	 -5.620800e-01	 1.125000e+00
-5.620800e-01	 -5.620800e-01	 3.750000e-01
-5.620800e-01	 -5.620800e-01	 7.500000e-01
-5.620800e-01	 -5.620800e-01	 1.875000e+00
-5.620800e-01	 -5.620800e-01	 2.625000e+00
-5.620800e-01	 5.620800e-01	 3.750000e-01
-5.620800e-01	 5.620800e-01	 7.500000e-01
-5.620800e-01	 5.620800e-01	 1.875000e+00
-5.620800e-01	 -5.620800e-01	 0
-5.620800e-01	 -5.620800e-01	 1.500000e+00
-5.620800e-01	 -5.620800e-01	 2.250000e+00
-5.620800e-01	 -5.620800e-01	 3
-5.620800e-01	 5.620800e-01	 0
-5.620800e-01	 5.620800e-01	 1.500000e+00
-5.620800e-01	 5.620800e-01	 2.250000e+00
-5.620800e-01	 5.620800e-01	 3
-5.620800e-01	 5.620800e-01	 2.625000e+00
-5.250231e-01	 -3.396892e-01	 7.500000e-01
-5.250231e-01	 3.396892e-01	 1.500000e+00
-5.250231e-01	 3.396892e-01	 2.250000e+00
-5.250231e-01	 3.396892e-01	 7.500000e-01
-5.250231e-01	 -3.396892e-01	 2.250000e+00
-5.250231e-01	 -3.396892e-01	 0
-5.250231e-01	 -3.396892e-01	 1.500000e+00
-5.250231e-01	 -3.396892e-01	 3.000000e+00
-5.250231e-01	 3.396892e-01	 0
-5.250231e-01	 3.396892e-01	 3.000000e+00
-5.225000e-01	 0	 1.500000e+00
-5.225000e-01	 0	 2.250000e+00
-5.225000e-01	 0	 0
-5.225000e-01	 0	 3.750000e-01
-5.225000e-01	 0	 7.500000e-01
-5.225000e-01	 0	 1.125000e+00
-5.225000e-01	 0	 1.875000e+00
-5.225000e-01	 0	 2.625000e+00
-5.225000e-01	 0	 3
-5.198493e-01	 7.951457e-01	 7.500000e-01
-5.198493e-01	 -7.951457e-01	 7.500000e-01
-5.198493e-01	 -7.951457e-01	 0
-5.198493e-01	 -7.951457e-01	 1.500000e+00
-5.198493e-01	 -7.951457e-01	 2.250000e+00
-5.198493e-01	 -7.951457e-01	 3
-5.198493e-01	 7.951457e-01	 0
-5.198493e-01	 7.951457e-01	 1.500000e+00
-5.198493e-01	 7.951457e-01	 2.250000e+00
-5.198493e-01	 7.951457e-01	 3
-5.143216e-01	 -1.961513e-01	 2.250000e+00
-5.143216e-01	 1.961513e-01	 7.500000e-01
-5.143216e-01	 1.961513e-01	 1.500000e+00
-5.143216e-01	 -1.961513e-01	 7.500000e-01
-5.143216e-01	 -1.961513e-01	 0
-5.143216e-01	 -1.961513e-01	 3.000000e+00
-5.143216e-01	 -1.961513e-01	 1.500000e+00
-5.143216e-01	 1.961513e-01	 2.250000e+00
-5.143216e-01	 1.961513e-01	 0
-5.143216e-01	 1.961513e-01	 3.000000e+00
-5.020120e-01	 -5.020120e-01	 7.500000e-01
-5.020120e-01	 -5.020120e-01	 1.500000e+00
-5.020120e-01	 5.020120e-01	 7.500000e-01
-5.020120e-01	 5.020120e-01	 1.500000e+00
-5.020120e-01	 -5.020120e-01	 0
-5.020120e-01	 -5.020120e-01	 2.250000e+00
-5.020120e-01	 -5.020120e-01	 3.000000e+00
-5.020120e-01	 5.020120e-01	 0
-5.020120e-01	 5.020120e-01	 2.250000e+00
-5.020120e-01	 5.020120e-01	 3.000000e+00
-4.847636e-01	 8.158725e-02	 7.500000e-01
-4.847636e-01	 -8.158725e-02	 7.500000e-01
[...]
POINT_DATA 1641
SCALARS pres_adim float 1
LOOKUP_TABLE default
-2.590111e+02
-1.841189e+02
1.841161e+02
2.590085e+02
1.841161e+02
-1.574875e-03
-1.841189e+02
-2.590111e+02
-1.547916e-03
2.839619e+02
-2.839600e+02
-2.839599e+02
-3.585918e-03
-2.273989e+02
2.273925e+02
-2.273989e+02
9.138351e-04
8.957939e-04
-3.577024e-03
2.119595e+02
2.119595e+02
-2.119532e+02
3.229090e-03
1.304106e+02
-2.981456e+02
-2.981456e+02
-2.119531e+02
3.212219e-03
-1.304194e+02
-4.566688e-03
-4.544128e-03
-1.304194e+02
-1.832462e+02
1.304106e+02
-1.832462e+02
2.981517e+02
1.832378e+02
-1.531932e-03
-2.576402e+02
2.576377e+02
-2.576402e+02
-1.505056e-03
3.108785e-03
-4.427780e-03
3.124992e-03
-4.405539e-03
-2.964939e+02
2.964999e+02
-2.964939e+02
1.823181e+02
-1.823262e+02
-1.823262e+02
-1.362749e-03
-1.386187e-03
-1.791626e+02
1.791601e+02
-1.791626e+02
-2.519736e+02
1.791601e+02
2.519713e+02
-2.519736e+02
4.492260e-03
-4.021421e-03
-3.033388e+02
3.033473e+02
4.527831e-03
-3.033389e+02
-1.321438e+02
1.321363e+02
-3.990747e-03
-1.321439e+02
7.821245e-04
-3.108476e-03
-2.209861e+02
-2.209861e+02
-2.756252e+02
2.756269e+02
7.657449e-04
-2.756252e+02
2.209805e+02
-3.116416e-03
2.889288e+02
1.780336e+02
2.771115e-03
-2.889235e+02
-2.889235e+02
-1.267371e+02
-2.054780e+02
2.054834e+02
2.054834e+02
-2.054780e+02
1.267295e+02
-1.780408e+02
1.267296e+02
-3.924290e-03
-1.267371e+02
-1.780408e+02
-3.942185e-03
2.759694e-03
-2.436740e+02
-1.164756e-03
2.436721e+02
-1.185090e-03
-2.436740e+02
-2.085396e+02
-5.184336e+01
-2.931942e+02
-2.085396e+02
4.139730e-03
2.085475e+02
2.085475e+02
-2.931942e+02
4.145163e-03
7.288356e+01
-7.288745e+01
-5.184336e+01
-1.946320e-03
5.183947e+01
5.183946e+01
-7.288744e+01
2.932018e+02
-1.952138e-03
-2.772557e+02
2.772600e+02
-2.772557e+02
2.250585e-03
2.256853e-03
-3.235163e-03
-3.222251e-03
-1.713901e+02
1.713842e+02
-1.713901e+02
3.886589e-03
3.859770e-03
-3.455993e-03
-3.430884e-03
-2.937123e+02
-2.937123e+02
-1.281840e+02
1.281775e+02
-1.281840e+02
2.937195e+02
-9.266628e-04
-2.312218e+02
-1.643951e+02
1.643935e+02
2.312203e+02
1.643934e+02
-1.643951e+02
-2.312218e+02
-9.434977e-04
-2.493799e+02
-2.493798e+02
4.601705e-04
2.493809e+02
4.477577e-04
-1.962806e-03
2.010608e+02
-2.010643e+02
-1.969807e-03
-2.010643e+02
-2.915514e+02
2.915588e+02
-2.915515e+02
-1.891236e-03
-7.247900e+01
7.247522e+01
-7.247899e+01
4.018806e-03
4.013782e-03
-1.885574e-03
-2.163827e+02
-6.850245e-04
2.163816e+02
-6.980441e-04
-2.163827e+02
1.144321e+02
-2.384489e-03
1.648621e-03
-2.587955e+02
-1.840480e+02
-2.587955e+02
2.587986e+02
1.840512e+02
-1.608094e+02
-1.144366e+02
-1.608094e+02
1.608051e+02
-1.840480e+02
1.646761e-03
1.840512e+02
-2.391790e-03
1.144321e+02
-1.144366e+02
5.019154e+01
2.019165e+02
-2.019097e+02
3.553463e-03
2.019165e+02
-2.019097e+02
-5.019487e+01
-1.664801e-03
5.019153e+01
-2.837387e+02
2.837452e+02
3.557408e-03
-2.837387e+02
-7.053655e+01
7.053322e+01
-1.668080e-03
-7.053654e+01
-5.019487e+01
2.256413e-03
1.149037e+02
-2.013526e-03
-2.025018e-03
2.266432e-03
-2.612532e+02
2.612573e+02
-2.612532e+02
-1.149075e+02
-1.149075e+02
1.977893e+02
-4.827324e-04
-1.977900e+02
-1.404626e+02
-4.724551e-04
1.404618e+02
1.404617e+02
-1.404626e+02
-1.977900e+02
8.405737e-04
2.274558e-03
-2.732767e+02
2.732806e+02
2.243344e-03
-2.732766e+02
-1.120069e+01
1.120189e+01
8.034297e-04
-1.120064e+01
1.067454e-03
-1.577842e-03
1.480267e+02
1.068778e-03
-2.362850e+02
-2.362850e+02
2.362870e+02
-1.575963e-03
-1.480295e+02
-1.480295e+02
2.877937e-03
2.714995e+02
-1.340772e-03
6.748961e+01
-2.714943e+02
2.880904e-03
-2.714943e+02
-6.749230e+01
-1.342060e-03
-6.749229e+01
-8.370268e-04
1.589673e-04
-2.057235e+02
2.057238e+02
-2.057235e+02
1.515828e-04
-1.680506e+02
1.680491e+02
-8.427140e-04
-1.680506e+02
1.771760e+02
-2.990862e-04
-1.771764e+02
-2.922564e-04
-1.771764e+02
1.791122e+02
4.452379e+01
-2.517165e+02
-1.791083e+02
-2.517165e+02
-1.791083e+02
2.517202e+02
4.452379e+01
-6.257523e+01
-4.452570e+01
-6.257523e+01
1.791122e+02
2.073858e-03
-9.561985e-04
-4.452570e+01
6.257332e+01
-9.559179e-04
2.071533e-03
1.476998e+02
2.078962e+02
-9.368384e+01
-9.368384e+01
1.318537e+02
9.368209e+01
6.059855e-04
-1.476986e+02
-1.476986e+02
6.076337e-04
-1.318553e+02
-9.282329e-04
-9.289130e-04
-1.318553e+02
9.368209e+01
1.476998e+02
-2.078951e+02
-2.078951e+02
7.073536e-04
1.925278e-03
-1.058003e+01
-1.058000e+01
1.949158e-03
-2.644797e+02
2.644831e+02
-2.644797e+02
1.058108e+01
7.352002e-04
-1.534609e+02
-1.085801e+02
-1.686117e-04
1.085798e+02
1.534606e+02
1.085798e+02
-1.730947e-04
-1.085801e+02
-1.534609e+02
7.896195e-04
7.915403e-04
-2.059290e+02
-2.059290e+02
2.059304e+02
-9.229473e+01
9.229342e+01
-7.173699e-04
-9.229473e+01
-7.184626e-04
1.309061e-03
-2.275581e+02
1.306928e-03
2.275604e+02
-2.275581e+02
-5.656925e+01
-5.944072e-04
5.656806e+01
-5.656925e+01
-5.938827e-04
2.822139e-04
-1.765416e+02
-1.765416e+02
-1.140786e+02
-1.140786e+02
-4.616259e-04
2.837348e-04
-4.597724e-04
1.140778e+02
1.765421e+02
1.707668e+02
-2.403201e+02
1.707668e+02
-2.403200e+02
2.403190e+02
4.938774e+01
4.938775e+01
-3.527116e+01
-3.527117e+01
3.527730e+01
-1.707678e+02
-4.057762e-04
-4.295691e-04
-1.707678e+02
-4.938195e+01
3.527730e+01
3.229826e-03
3.245301e-03
1.127793e-03
2.347806e+02
1.119404e-03
4.539019e-04
4.640249e-04
-2.347787e+02
-2.347787e+02
-8.402711e+00
8.403354e+00
-8.402698e+00
1.194628e-05
1.480679e+02
-1.480678e+02
9.353405e-06
-1.480678e+02
-1.247107e+02
1.247104e+02
-2.174892e-04
-1.247107e+02
-2.149899e-04
-4.005171e-04
-4.238675e-04
3.153825e-03
3.138883e-03
-2.389382e+02
-2.389381e+02
4.922196e+01
-4.921634e+01
4.922197e+01
2.389371e+02
7.250375e-04
-3.238885e-04
3.482214e+01
1.400812e+02
-1.970917e+02
-1.400799e+02
1.970930e+02
1.400813e+02
-1.400799e+02
-1.970917e+02
-4.899528e+01
-3.482279e+01
4.899463e+01
3.482214e+01
-3.482279e+01
-4.899528e+01
7.271718e-04
-3.237779e-04
2.326399e+02
-1.653902e+02
3.454175e+01
2.809980e-03
-4.837906e+01
-2.326409e+02
1.653893e+02
-3.857215e-04
-1.653902e+02
-2.326409e+02
-3.453642e+01
-3.453643e+01
4.838407e+01
4.838409e+01
1.653893e+02
-3.677957e-04
2.821042e-03
3.454175e+01
-1.004107e+02
-1.416464e+02
1.004109e+02
1.416466e+02
1.004109e+02
1.085778e-04
-1.004107e+02
-1.416464e+02
-9.430188e+01
-2.021808e-04
-2.031163e-04
-6.685190e+01
-9.430188e+01
6.685153e+01
9.430155e+01
1.090674e-04
-6.685190e+01
6.685153e+01
-2.229594e+02
2.229586e+02
-2.229594e+02
4.704089e+01
-4.703677e+01
4.704090e+01
-3.187721e-04
-3.309453e-04
2.336138e-03
2.328934e-03
-1.636771e+02
3.237805e-04
1.636776e+02
-1.636771e+02
-4.068852e+01
-1.418431e-04
4.068824e+01
-4.068853e+01
3.258775e-04
-1.418059e-04
3.841370e-04
1.949708e-04
1.941937e-04
-1.841482e+02
1.841488e+02
3.850938e-04
-1.841482e+02
-4.674914e+00
-4.674915e+00
4.675169e+00
8.786755e+01
1.119694e+02
1.347589e+02
-1.119693e+02
-1.119693e+02
6.328186e+01
-1.347587e+02
1.357330e-04
-1.347587e+02
1.349041e-04
1.352711e-05
1.375232e-05
-8.786767e+01
-8.415222e-05
-8.786767e+01
-8.478000e-05
-1.366841e-04
-6.328210e+01
-1.370245e-04
-6.328210e+01
1.747758e-03
-2.607403e-04
2.076728e+02
-1.476535e+02
3.197836e+01
-2.076734e+02
-1.476535e+02
-2.076734e+02
1.751344e-03
4.484944e+01
3.197836e+01
4.484944e+01
1.476529e+02
-2.542147e-04
1.476529e+02
-3.197508e+01
-4.484638e+01
-3.197508e+01
1.178808e-03
1.889684e+02
-1.889689e+02
-1.889689e+02
4.231548e+01
4.231548e+01
-1.855425e-04
-1.867626e-04
-4.231346e+01
1.178041e-03
1.233598e-04
-5.520196e-05
-9.007468e+01
8.074547e+01
-2.160189e-05
-2.239166e+01
-1.270616e+02
9.007490e+01
1.270618e+02
9.007490e+01
1.251998e-04
-9.007468e+01
-1.270616e+02
-5.719569e+01
-5.719569e+01
-8.074550e+01
5.719565e+01
-8.074549e+01
-2.170063e-05
-3.158621e+01
2.239155e+01
3.158610e+01
2.239155e+01
-5.518441e-05
-2.239166e+01
-3.158621e+01
5.719565e+01
-1.068690e+02
-2.008674e+02
2.008618e+02
-2.008674e+02
1.068773e+02
1.068773e+02
-2.874457e-03
-2.882527e-03
4.495359e-03
4.517206e-03
1.175108e+02
-2.775396e+01
1.654091e+02
1.175108e+02
-2.775396e+01
7.175292e-04
-3.905439e+01
-1.175111e+02
-1.654094e+02
-1.308199e-04
-1.301893e-04
-1.654094e+02
3.905560e+01
3.905559e+01
2.775528e+01
-1.175111e+02
2.775528e+01
7.175749e-04
-2.512996e-03
-1.948324e+02
-1.948324e+02
3.915899e-03
1.948275e+02
-2.506091e-03
1.040365e+02
-1.040293e+02
3.933672e-03
1.040365e+02
4.061267e-05
-2.102355e-05
2.408317e+01
1.189763e+02
-1.189762e+02
5.879646e-05
-1.189762e+02
4.181169e-05
-9.687949e+01
9.687955e+01
-9.687949e+01
-7.320129e+01
7.320130e+01
4.221224e-06
-7.320129e+01
3.916339e-06
-2.395638e-05
-4.876633e+01
-4.876633e+01
-2.381818e-05
-2.408321e+01
-2.105513e-05
-2.408321e+01
2.062514e-01
5.062748e-05
2.062491e-01
-2.061862e-01
5.658567e-05
4.876630e+01
5.056303e-05
-7.876790e-05
1.393452e+02
-1.393454e+02
-1.393454e+02
-8.093437e-05
-3.555184e+01
3.713196e-04
3.555244e+01
3.555244e+01
3.716939e-04
-1.756851e+02
-1.609525e-03
-1.756851e+02
9.539846e+01
9.539845e+01
-9.539392e+01
2.510513e-03
2.501241e-03
-1.614691e-03
1.756820e+02
1.620961e+01
7.821177e+01
1.103331e+02
-4.620269e+01
-4.620269e+01
4.883207e-06
-1.148549e+01
2.244822e+01
-1.103332e+02
-5.035981e-05
-4.845335e-05
-7.821187e+01
-1.103332e+02
7.821177e+01
-6.520645e+01
-6.520645e+01
4.415021e-06
4.620270e+01
6.520646e+01
-1.620962e+01
-6.963761e-06
1.148548e+01
-7.040469e-06
-1.148549e+01
-1.620962e+01
1.734050e-04
3.166247e+01
-2.244791e+01
-3.166219e+01
-2.244791e+01
1.731509e-04
2.244822e+01
3.166246e+01
-7.821187e+01
4.620270e+01
1.148548e+01
-7.200429e-04
1.096171e-03
-1.437709e+02
1.437696e+02
-7.169145e-04
-1.437709e+02
8.117039e+01
-8.116845e+01
8.117038e+01
1.098789e-03
-2.107015e-04
-5.848471e-05
-3.512809e-06
9.676489e-05
-6.267391e+01
-1.014862e+02
1.014858e+02
-2.089338e-04
-1.014862e+02
8.015609e+01
-8.015620e+01
-8.015620e+01
-5.975422e-05
-1.019399e-05
-3.285630e+01
-4.630931e-06
-3.285630e+01
3.285630e+01
-4.730156e-06
-8.167717e+00
8.167720e+00
-3.763011e-06
-8.167716e+00
1.639925e+01
1.639925e+01
-1.639922e+01
1.627987e-05
9.636396e-05
4.010737e+01
4.010737e+01
-4.010721e+01
6.267442e+01
2.997115e-04
6.267441e+01
2.998703e-04
-5.700185e+01
5.700183e+01
-5.700185e+01
-1.080299e-05
1.660021e-05
3.442084e+01
3.442084e+01
3.442077e+01
3.442076e+01
-4.391416e-05
-4.357924e-05
-1.558778e+02
-1.108073e+02
1.107989e+02
1.558697e+02
1.107989e+02
-4.299871e-03
-1.108073e+02
-1.558778e+02
-4.327131e-03
-4.179376e-03
-1.550527e+02
1.550448e+02
-1.550527e+02
-4.206509e-03
-3.798222e-03
-3.775560e-03
-1.078241e+02
1.078168e+02
-1.078241e+02
-1.516422e+02
1.078168e+02
1.516351e+02
-1.516422e+02
-1.466471e+02
-3.234502e-03
1.466410e+02
-3.216364e-03
-1.466471e+02
-2.559159e-03
-1.391528e+02
-9.893608e+01
9.893115e+01
1.391481e+02
9.893116e+01
-9.893608e+01
-1.391528e+02
-2.545667e-03
-1.302220e+02
-1.874818e-03
1.302186e+02
-1.866528e-03
-1.302221e+02
1.190301e+02
-1.273870e-03
-1.190324e+02
-8.453238e+01
-1.279195e-03
8.452994e+01
8.452994e+01
-8.453239e+01
-1.190324e+02
1.066253e+02
-7.734779e-04
-1.066267e+02
-7.759363e-04
-1.066267e+02
-9.235422e+01
-6.534468e+01
-4.364086e-04
6.534385e+01
9.235345e+01
6.534385e+01
-4.350776e-04
-6.534468e+01
-9.235422e+01
1.905851e-06
4.573378e-06
-3.107203e-07
-3.314003e-07
1.561509e-06
-3.420503e-06
-3.677690e-06
-2.009017e-06
-7.677915e-07
4.859330e+01
3.919115e-05
4.859330e+01
3.986511e-05
-4.859323e+01
9.235422e+01
6.534468e+01
4.364636e-04
-6.534386e+01
-9.235345e+01
-6.534385e+01
4.360871e-04
6.534468e+01
9.235422e+01
1.066267e+02
7.756776e-04
1.066267e+02
7.764782e-04
-1.066253e+02
1.190324e+02
8.453238e+01
1.276112e-03
-8.452994e+01
-8.452994e+01
8.453238e+01
1.190324e+02
-1.190301e+02
1.279849e-03
1.302220e+02
1.868296e-03
-1.302186e+02
1.875114e-03
1.302220e+02
2.559138e-03
1.391528e+02
9.893608e+01
-9.893116e+01
-1.391481e+02
-9.893115e+01
9.893608e+01
1.391528e+02
2.546541e-03
1.466471e+02
3.216280e-03
-1.466410e+02
3.234319e-03
1.466471e+02
1.516422e+02
-1.078168e+02
-1.516351e+02
1.516422e+02
1.078241e+02
-1.078168e+02
1.078241e+02
3.774719e-03
3.797939e-03
4.178133e-03
1.550527e+02
-1.550448e+02
1.550527e+02
4.206461e-03
4.298557e-03
1.558778e+02
1.108073e+02
-1.107989e+02
-1.558697e+02
-1.107989e+02
4.327116e-03
1.108073e+02
1.558778e+02
-3.442084e+01
-4.859330e+01
-4.859330e+01
4.859323e+01
-3.442084e+01
-3.442077e+01
-3.442077e+01
-2.129706e-05
-8.167717e+00
5.700185e+01
5.407199e-06
-5.700183e+01
5.700185e+01
-1.639924e+01
1.639922e+01
-1.639924e+01
-3.285629e+01
-2.995460e-04
-6.267441e+01
6.267391e+01
-2.999055e-04
-6.267441e+01
-4.010737e+01
-4.010737e+01
8.167721e+00
-2.764722e-06
-3.111217e-06
8.167724e+00
3.285630e+01
-2.261594e-06
3.285630e+01
-1.853109e-06
4.906857e-06
5.666352e-05
5.555377e-05
8.015620e+01
8.015620e+01
1.014862e+02
-1.014858e+02
2.084551e-04
1.014862e+02
2.100672e-04
-9.907899e-05
-9.882703e-05
-2.155668e-05
-8.015609e+01
4.010721e+01
-1.094795e-03
-8.117038e+01
8.116845e+01
-8.117039e+01
1.437709e+02
-1.437696e+02
7.188424e-04
1.437709e+02
-1.095669e-03
7.202694e-04
-2.244822e+01
-1.148548e+01
-1.032048e-05
-6.520646e+01
7.821187e+01
-3.166246e+01
-1.727417e-04
2.244791e+01
3.166219e+01
2.244791e+01
-1.744579e-04
-2.244822e+01
-3.166246e+01
2.074142e-06
1.620962e+01
-1.148548e+01
-1.620961e+01
1.729953e-06
1.148549e+01
1.620962e+01
6.520645e+01
-1.018746e-05
4.620269e+01
6.520645e+01
4.620269e+01
4.886520e-05
-7.821177e+01
1.103332e+02
-7.821177e+01
-1.103331e+02
4.666131e-05
7.821187e+01
1.103332e+02
1.148549e+01
-4.620270e+01
-4.620270e+01
1.611252e-03
-1.756820e+02
-2.508273e-03
9.539391e+01
-2.500413e-03
-9.539845e+01
-9.539847e+01
1.756851e+02
1.612881e-03
1.756851e+02
-3.712236e-04
-3.555245e+01
-3.555244e+01
-3.681561e-04
3.555184e+01
8.160835e-05
1.393454e+02
1.393454e+02
-1.393452e+02
7.822449e-05
2.408321e+01
2.408322e+01
-5.015909e-05
1.939389e-05
-7.320130e+01
-8.664206e-06
-5.906545e-05
2.061869e-01
-2.062504e-01
-5.215073e-05
-2.062457e-01
1.850958e-05
-2.408317e+01
1.783584e-05
1.936483e-05
7.320129e+01
7.320129e+01
-9.040781e-06
9.687949e+01
-4.503770e-05
-4.519944e-05
9.687949e+01
-9.687955e+01
1.189762e+02
-6.061060e-05
1.189762e+02
-1.189763e+02
4.876634e+01
-4.876630e+01
4.876634e+01
-1.040365e+02
1.040293e+02
-3.916699e-03
-1.040365e+02
-1.948275e+02
2.511715e-03
-3.933603e-03
1.948324e+02
1.948324e+02
2.505512e-03
-2.775528e+01
-7.121331e-04
1.175111e+02
-2.775528e+01
-3.905560e+01
-3.905559e+01
1.654094e+02
1.344316e-04
1.286675e-04
1.654094e+02
1.175111e+02
3.905439e+01
-7.167322e-04
2.775396e+01
-1.175108e+02
-1.654091e+02
2.775396e+01
-1.175108e+02
-4.518303e-03
-4.496977e-03
2.873459e-03
2.881914e-03
-1.068773e+02
-1.068773e+02
2.008674e+02
-2.008618e+02
2.008674e+02
1.068690e+02
8.074550e+01
5.719569e+01
8.074550e+01
3.158621e+01
-2.239155e+01
-3.158610e+01
-2.239155e+01
5.404067e-05
2.239166e+01
3.158622e+01
1.798565e-05
-5.719565e+01
-5.719565e+01
1.270616e+02
-9.007490e+01
-1.270618e+02
-9.007490e+01
-1.264572e-04
9.007468e+01
1.270616e+02
2.239166e+01
5.719569e+01
-8.074547e+01
1.888338e-05
9.007468e+01
5.547403e-05
-1.262220e-04
-1.177798e-03
4.231346e+01
1.834452e-04
1.913322e-04
-4.231549e+01
-4.231548e+01
1.889689e+02
1.889689e+02
-1.889685e+02
-1.172424e-03
4.484638e+01
3.197508e+01
3.197508e+01
2.639263e-04
-1.476529e+02
-1.476529e+02
-4.484945e+01
-3.197835e+01
-4.484944e+01
-1.743934e-03
2.076734e+02
1.476535e+02
2.076734e+02
-3.197836e+01
1.476535e+02
-2.076728e+02
2.525576e-04
-1.750527e-03
8.273929e-05
-1.616603e-05
6.328210e+01
1.366779e-04
6.328210e+01
1.372025e-04
-1.370558e-04
1.347587e+02
-1.360389e-04
1.347587e+02
-6.328186e+01
8.786768e+01
8.381158e-05
8.786767e+01
1.119693e+02
1.119693e+02
-1.460885e-05
-1.347589e+02
-8.786754e+01
-1.119694e+02
-4.675170e+00
4.674908e+00
4.674917e+00
1.841482e+02
-1.841488e+02
-3.861694e-04
1.841482e+02
-1.942678e-04
-1.872657e-04
-3.807152e-04
1.425491e-04
-3.250749e-04
4.068852e+01
1.456958e-04
-4.068824e+01
4.068853e+01
1.636771e+02
-3.244983e-04
-1.636776e+02
1.636771e+02
-2.327611e-03
-2.335841e-03
3.324064e-04
3.173961e-04
-4.704090e+01
4.703677e+01
-4.704089e+01
2.229594e+02
-2.229586e+02
2.229594e+02
2.031853e-04
-6.685152e+01
6.685190e+01
1.004107e+02
-1.099651e-04
-1.004109e+02
-6.685152e+01
-9.430155e+01
9.430189e+01
2.041876e-04
6.685189e+01
9.430188e+01
1.416464e+02
-1.004109e+02
-1.416466e+02
-1.077834e-04
1.004107e+02
1.416464e+02
-3.454175e+01
-2.811363e-03
3.852562e-04
-1.653893e+02
-4.838408e+01
-4.838407e+01
3.453643e+01
3.453642e+01
2.326409e+02
-1.653893e+02
3.668048e-04
1.653902e+02
2.326409e+02
4.837907e+01
-2.821099e-03
-3.454175e+01
1.653902e+02
-2.326399e+02
3.259302e-04
-7.249780e-04
4.899528e+01
3.482279e+01
-4.899463e+01
-3.482214e+01
3.482279e+01
4.899528e+01
1.970917e+02
1.400799e+02
-1.970930e+02
-1.400813e+02
1.400799e+02
1.970917e+02
-1.400813e+02
-3.482214e+01
3.302459e-04
-7.241644e-04
-2.389371e+02
-4.922197e+01
4.921634e+01
-4.922195e+01
2.389381e+02
2.389382e+02
-3.153948e-03
-3.142408e-03
3.999331e-04
4.220110e-04
2.173922e-04
-1.247104e+02
1.247107e+02
2.193695e-04
1.247107e+02
1.480678e+02
-1.480679e+02
-7.924719e-06
1.480678e+02
-1.038528e-05
8.402693e+00
-8.403355e+00
8.402712e+00
2.347787e+02
2.347787e+02
-4.490475e-04
-4.633244e-04
-2.347806e+02
-1.128300e-03
-1.115466e-03
-3.233704e-03
-3.245557e-03
-3.527730e+01
4.938195e+01
1.707678e+02
4.274917e-04
4.050600e-04
1.707678e+02
3.527117e+01
3.527116e+01
-3.527730e+01
-4.938775e+01
-4.938773e+01
-2.403190e+02
2.403201e+02
-1.707668e+02
2.403201e+02
-1.707668e+02
-1.765421e+02
-1.140778e+02
4.634695e-04
-2.823324e-04
4.648479e-04
1.140786e+02
1.140786e+02
1.765416e+02
1.765416e+02
-2.795341e-04
5.965058e-04
5.656925e+01
6.010438e-04
-5.656806e+01
5.656925e+01
2.275581e+02
-1.305662e-03
-2.275604e+02
2.275581e+02
-1.306471e-03
7.223359e-04
9.229473e+01
-9.229342e+01
7.224519e-04
9.229473e+01
-2.059305e+02
2.059290e+02
2.059290e+02
-7.868593e-04
-7.897361e-04
1.534609e+02
1.085801e+02
1.728915e-04
-1.085798e+02
-1.534606e+02
-1.085798e+02
1.750615e-04
1.085801e+02
1.534609e+02
-7.101350e-04
-1.058108e+01
2.644797e+02
-2.644831e+02
2.644797e+02
-1.926539e-03
1.058000e+01
1.058003e+01
-1.948715e-03
-7.352953e-04
2.078951e+02
2.078951e+02
-1.476998e+02
-9.368209e+01
1.318553e+02
9.316549e-04
9.349168e-04
1.318553e+02
1.476986e+02
-6.052366e-04
1.476986e+02
-6.018637e-04
-9.368209e+01
-1.318537e+02
9.368384e+01
9.368384e+01
-2.078962e+02
-1.476998e+02
-2.072000e-03
9.615837e-04
4.452570e+01
-6.257332e+01
9.575303e-04
-2.071031e-03
-1.791122e+02
6.257523e+01
4.452570e+01
6.257523e+01
-4.452379e+01
1.791083e+02
-2.517202e+02
2.517165e+02
1.791083e+02
2.517165e+02
-4.452378e+01
-1.791122e+02
1.771764e+02
2.992950e-04
1.771764e+02
3.007250e-04
-1.771760e+02
1.680506e+02
-1.680491e+02
8.455855e-04
1.680506e+02
-1.507714e-04
2.057235e+02
-2.057238e+02
2.057235e+02
-1.514340e-04
8.436193e-04
6.749229e+01
1.340708e-03
6.749229e+01
2.714943e+02
-2.878080e-03
2.714943e+02
1.344455e-03
-6.748962e+01
-2.881521e-03
-2.714995e+02
1.480295e+02
1.480295e+02
1.584021e-03
-2.362870e+02
2.362850e+02
2.362850e+02
-1.066561e-03
-1.480267e+02
1.578184e-03
-1.063157e-03
1.120064e+01
-1.120189e+01
-8.404984e-04
1.120069e+01
2.732766e+02
-2.732806e+02
-2.274106e-03
2.732767e+02
-2.247435e-03
-8.095966e-04
1.977900e+02
1.404626e+02
4.830982e-04
-1.404618e+02
-1.404618e+02
1.404626e+02
1.977900e+02
-1.977893e+02
4.813345e-04
1.149075e+02
1.149074e+02
2.612532e+02
-2.612573e+02
2.612532e+02
-2.255046e-03
2.017895e-03
-1.149037e+02
2.027683e-03
-2.266153e-03
5.019487e+01
7.053654e+01
-7.053322e+01
1.663096e-03
7.053655e+01
2.837387e+02
-2.837452e+02
-3.554380e-03
2.837387e+02
5.019487e+01
1.667147e-03
-5.019154e+01
2.019097e+02
2.019097e+02
-3.560711e-03
-2.019165e+02
-2.019165e+02
-5.019154e+01
1.144366e+02
2.385418e-03
-1.144321e+02
-1.840512e+02
-1.647788e-03
1.840480e+02
-1.608051e+02
1.608094e+02
1.144366e+02
1.608094e+02
-2.587986e+02
-1.840512e+02
2.587955e+02
1.840480e+02
2.587955e+02
-1.643362e-03
2.395248e-03
-1.144321e+02
2.163827e+02
6.978758e-04
-2.163816e+02
6.927920e-04
2.163827e+02
1.887794e-03
-4.024083e-03
-4.015136e-03
7.247899e+01
-7.247523e+01