# vtk DataFile Version 3.0
Unstructured Grid Example
ASCII
DATASET UNSTRUCTURED_GRID
POINTS 832 float
-1	 0	 0
-1	 0	 3.750000e-01
-1	 0	 7.500000e-01
-1	 0	 1.125000e+00
-1	 0	 1.500000e+00
-1	 0	 1.875000e+00
-1	 0	 2.250000e+00
-1	 0	 2.625000e+00
-1	 0	 3
-9.875000e-01	 0	 0
-9.875000e-01	 0	 1.500000e+00
-9.875000e-01	 0	 3
-9.875000e-01	 0	 2.250000e+00
-9.875000e-01	 0	 7.500000e-01
-9.833054e-01	 -1.819631e-01	 7.500000e-01
-9.833054e-01	 -1.819631e-01	 0
-9.833054e-01	 -1.819631e-01	 1.500000e+00
-9.833054e-01	 -1.819631e-01	 3.000000e+00
-9.833054e-01	 1.819631e-01	 2.250000e+00
-9.833054e-01	 1.819631e-01	 0
-9.833054e-01	 1.819631e-01	 1.500000e+00
-9.833054e-01	 1.819631e-01	 3.000000e+00
-9.833054e-01	 1.819631e-01	 7.500000e-01
-9.833054e-01	 -1.819631e-01	 2.250000e+00
-9.750000e-01	 0	 7.500000e-01
-9.750000e-01	 0	 1.125000e+00
-9.750000e-01	 0	 0
-9.750000e-01	 0	 3.750000e-01
-9.750000e-01	 0	 1.875000e+00
-9.750000e-01	 0	 2.625000e+00
-9.750000e-01	 0	 3
-9.750000e-01	 0	 1.500000e+00
-9.750000e-01	 0	 2.250000e+00
-9.625000e-01	 0	 1.500000e+00
-9.625000e-01	 0	 2.250000e+00
-9.625000e-01	 0	 0
-9.625000e-01	 0	 7.500000e-01
-9.625000e-01	 0	 3
-9.587227e-01	 -1.774140e-01	 0
-9.587227e-01	 -1.774140e-01	 3.000000e+00
-9.587227e-01	 -1.774140e-01	 1.500000e+00
-9.587227e-01	 1.774140e-01	 0
-9.587227e-01	 1.774140e-01	 3.000000e+00
-9.587227e-01	 1.774140e-01	 1.500000e+00
-9.587227e-01	 1.774140e-01	 7.500000e-01
-9.587227e-01	 -1.774140e-01	 7.500000e-01
-9.587227e-01	 -1.774140e-01	 2.250000e+00
-9.587227e-01	 1.774140e-01	 2.250000e+00
-9.500000e-01	 0	 0
-9.500000e-01	 0	 3.750000e-01
-9.500000e-01	 0	 1.125000e+00
-9.500000e-01	 0	 1.500000e+00
-9.500000e-01	 0	 1.875000e+00
-9.500000e-01	 0	 2.250000e+00
-9.500000e-01	 0	 2.625000e+00
-9.500000e-01	 0	 3
-9.500000e-01	 0	 7.500000e-01
-9.341401e-01	 -1.728649e-01	 1.500000e+00
-9.341401e-01	 -1.728649e-01	 0
-9.341401e-01	 -1.728649e-01	 3.000000e+00
-9.341401e-01	 1.728649e-01	 2.250000e+00
-9.341401e-01	 1.728649e-01	 0
-9.341401e-01	 1.728649e-01	 1.500000e+00
-9.341401e-01	 1.728649e-01	 3.000000e+00
-9.341401e-01	 -1.728649e-01	 7.500000e-01
-9.341401e-01	 -1.728649e-01	 2.250000e+00
-9.341401e-01	 1.728649e-01	 7.500000e-01
-9.297883e-01	 -3.680947e-01	 1.125000e+00
-9.297883e-01	 -3.680947e-01	 0
-9.297883e-01	 -3.680947e-01	 7.500000e-01
-9.297883e-01	 -3.680947e-01	 1.500000e+00
-9.297883e-01	 -3.680947e-01	 1.875000e+00
-9.297883e-01	 -3.680947e-01	 2.250000e+00
-9.297883e-01	 -3.680947e-01	 2.625000e+00
-9.297883e-01	 -3.680947e-01	 3.000000e+00
-9.297883e-01	 -3.680947e-01	 3.750000e-01
-9.297883e-01	 3.680947e-01	 3.750000e-01
-9.297883e-01	 3.680947e-01	 2.250000e+00
-9.297883e-01	 3.680947e-01	 2.625000e+00
-9.297883e-01	 3.680947e-01	 0
-9.297883e-01	 3.680947e-01	 7.500000e-01
-9.297883e-01	 3.680947e-01	 1.500000e+00
-9.297883e-01	 3.680947e-01	 1.875000e+00
-9.297883e-01	 3.680947e-01	 3.000000e+00
-9.297883e-01	 3.680947e-01	 1.125000e+00
-9.181659e-01	 3.634935e-01	 7.500000e-01
-9.181659e-01	 -3.634935e-01	 0
-9.181659e-01	 -3.634935e-01	 7.500000e-01
-9.181659e-01	 -3.634935e-01	 2.250000e+00
-9.181659e-01	 -3.634935e-01	 3
-9.181659e-01	 3.634935e-01	 0
-9.181659e-01	 3.634935e-01	 2.250000e+00
-9.181659e-01	 3.634935e-01	 3
-9.181659e-01	 -3.634935e-01	 1.500000e+00
-9.181659e-01	 3.634935e-01	 1.500000e+00
-9.065436e-01	 -3.588923e-01	 1.125000e+00
-9.065436e-01	 -3.588923e-01	 2.625000e+00
-9.065436e-01	 -3.588923e-01	 0
-9.065436e-01	 -3.588923e-01	 3.750000e-01
-9.065436e-01	 -3.588923e-01	 1.500000e+00
-9.065436e-01	 -3.588923e-01	 3
-9.065436e-01	 3.588923e-01	 2.625000e+00
-9.065436e-01	 3.588923e-01	 1.125000e+00
-9.065436e-01	 3.588923e-01	 0
-9.065436e-01	 3.588923e-01	 3.750000e-01
-9.065436e-01	 3.588923e-01	 3
-9.065436e-01	 -3.588923e-01	 7.500000e-01
-9.065436e-01	 -3.588923e-01	 1.875000e+00
-9.065436e-01	 3.588923e-01	 1.875000e+00
-9.065436e-01	 3.588923e-01	 1.500000e+00
-9.065436e-01	 -3.588923e-01	 2.250000e+00
-9.065436e-01	 3.588923e-01	 7.500000e-01
-9.065436e-01	 3.588923e-01	 2.250000e+00
-8.949212e-01	 3.542912e-01	 1.500000e+00
-8.949212e-01	 -3.542912e-01	 1.500000e+00
-8.949212e-01	 -3.542912e-01	 0
-8.949212e-01	 -3.542912e-01	 3.000000e+00
-8.949212e-01	 3.542912e-01	 0
-8.949212e-01	 3.542912e-01	 3.000000e+00
-8.949212e-01	 -3.542912e-01	 2.250000e+00
-8.949212e-01	 -3.542912e-01	 7.500000e-01
-8.949212e-01	 3.542912e-01	 2.250000e+00
-8.949212e-01	 3.542912e-01	 7.500000e-01
-8.832989e-01	 -3.496900e-01	 1.125000e+00
-8.832989e-01	 -3.496900e-01	 1.875000e+00
-8.832989e-01	 -3.496900e-01	 2.625000e+00
-8.832989e-01	 -3.496900e-01	 2.250000e+00
-8.832989e-01	 3.496900e-01	 1.125000e+00
-8.832989e-01	 -3.496900e-01	 0
-8.832989e-01	 -3.496900e-01	 3.000000e+00
-8.832989e-01	 -3.496900e-01	 3.750000e-01
-8.832989e-01	 -3.496900e-01	 7.500000e-01
-8.832989e-01	 3.496900e-01	 3.750000e-01
-8.832989e-01	 3.496900e-01	 7.500000e-01
-8.832989e-01	 3.496900e-01	 2.250000e+00
-8.832989e-01	 3.496900e-01	 2.625000e+00
-8.832989e-01	 3.496900e-01	 0
-8.832989e-01	 3.496900e-01	 1.875000e+00
-8.832989e-01	 3.496900e-01	 3.000000e+00
-8.832989e-01	 -3.496900e-01	 1.500000e+00
-8.832989e-01	 3.496900e-01	 1.500000e+00
-8.369955e-01	 -5.472098e-01	 0
-8.369955e-01	 -5.472098e-01	 7.500000e-01
-8.369955e-01	 -5.472098e-01	 1.500000e+00
-8.369955e-01	 -5.472098e-01	 2.250000e+00
-8.369955e-01	 -5.472098e-01	 3
-8.369955e-01	 5.472098e-01	 0
-8.369955e-01	 5.472098e-01	 7.500000e-01
-8.369955e-01	 5.472098e-01	 1.500000e+00
-8.369955e-01	 5.472098e-01	 2.250000e+00
-8.369955e-01	 5.472098e-01	 3
-8.160706e-01	 -5.335295e-01	 7.500000e-01
-8.160706e-01	 5.335295e-01	 7.500000e-01
-8.160706e-01	 -5.335295e-01	 1.500000e+00
-8.160706e-01	 -5.335295e-01	 2.250000e+00
-8.160706e-01	 5.335295e-01	 1.500000e+00
-8.160706e-01	 5.335295e-01	 2.250000e+00
-8.160706e-01	 -5.335295e-01	 0
-8.160706e-01	 -5.335295e-01	 3.000000e+00
-8.160706e-01	 5.335295e-01	 0
-8.160706e-01	 5.335295e-01	 3.000000e+00
-7.951457e-01	 -5.198493e-01	 7.500000e-01
-7.951457e-01	 5.198493e-01	 7.500000e-01
-7.951457e-01	 -5.198493e-01	 0
-7.951457e-01	 -5.198493e-01	 1.500000e+00
-7.951457e-01	 -5.198493e-01	 2.250000e+00
-7.951457e-01	 -5.198493e-01	 3
-7.951457e-01	 5.198493e-01	 0
-7.951457e-01	 5.198493e-01	 1.500000e+00
-7.951457e-01	 5.198493e-01	 2.250000e+00
-7.951457e-01	 5.198493e-01	 3
-7.071068e-01	 -7.071068e-01	 0
-7.071068e-01	 -7.071068e-01	 3.750000e-01
-7.071068e-01	 -7.071068e-01	 7.500000e-01
-7.071068e-01	 -7.071068e-01	 1.125000e+00
-7.071068e-01	 -7.071068e-01	 1.500000e+00
-7.071068e-01	 -7.071068e-01	 1.875000e+00
-7.071068e-01	 -7.071068e-01	 2.250000e+00
-7.071068e-01	 -7.071068e-01	 2.625000e+00
-7.071068e-01	 -7.071068e-01	 3.000000e+00
-7.071068e-01	 7.071068e-01	 0
-7.071068e-01	 7.071068e-01	 3.750000e-01
-7.071068e-01	 7.071068e-01	 7.500000e-01
-7.071068e-01	 7.071068e-01	 1.125000e+00
-7.071068e-01	 7.071068e-01	 1.500000e+00
-7.071068e-01	 7.071068e-01	 1.875000e+00
-7.071068e-01	 7.071068e-01	 2.250000e+00
-7.071068e-01	 7.071068e-01	 2.625000e+00
-7.071068e-01	 7.071068e-01	 3.000000e+00
-6.982679e-01	 -6.982679e-01	 7.500000e-01
-6.982679e-01	 6.982679e-01	 7.500000e-01
-6.982679e-01	 -6.982679e-01	 0
-6.982679e-01	 -6.982679e-01	 2.250000e+00
-6.982679e-01	 -6.982679e-01	 3.000000e+00
-6.982679e-01	 6.982679e-01	 0
-6.982679e-01	 6.982679e-01	 2.250000e+00
-6.982679e-01	 6.982679e-01	 3.000000e+00
-6.982679e-01	 -6.982679e-01	 1.500000e+00
-6.982679e-01	 6.982679e-01	 1.500000e+00
-6.894291e-01	 -6.894291e-01	 3.750000e-01
-6.894291e-01	 -6.894291e-01	 2.625000e+00
-6.894291e-01	 -6.894291e-01	 0
-6.894291e-01	 -6.894291e-01	 1.500000e+00
-6.894291e-01	 -6.894291e-01	 2.250000e+00
-6.894291e-01	 -6.894291e-01	 3.000000e+00
-6.894291e-01	 6.894291e-01	 3.750000e-01
-6.894291e-01	 6.894291e-01	 2.625000e+00
-6.894291e-01	 -6.894291e-01	 1.875000e+00
-6.894291e-01	 6.894291e-01	 1.875000e+00
-6.894291e-01	 -6.894291e-01	 7.500000e-01
-6.894291e-01	 -6.894291e-01	 1.125000e+00
-6.894291e-01	 6.894291e-01	 0
-6.894291e-01	 6.894291e-01	 1.500000e+00
-6.894291e-01	 6.894291e-01	 2.250000e+00
-6.894291e-01	 6.894291e-01	 3.000000e+00
-6.894291e-01	 6.894291e-01	 7.500000e-01
-6.894291e-01	 6.894291e-01	 1.125000e+00
-6.805903e-01	 6.805903e-01	 7.500000e-01
-6.805903e-01	 -6.805903e-01	 7.500000e-01
-6.805903e-01	 -6.805903e-01	 0
-6.805903e-01	 -6.805903e-01	 1.500000e+00
-6.805903e-01	 -6.805903e-01	 3.000000e+00
-6.805903e-01	 6.805903e-01	 0
-6.805903e-01	 6.805903e-01	 1.500000e+00
-6.805903e-01	 6.805903e-01	 3.000000e+00
-6.805903e-01	 6.805903e-01	 2.250000e+00
-6.805903e-01	 -6.805903e-01	 2.250000e+00
-6.717514e-01	 -6.717514e-01	 2.625000e+00
-6.717514e-01	 6.717514e-01	 2.625000e+00
-6.717514e-01	 -6.717514e-01	 0
-6.717514e-01	 -6.717514e-01	 3.750000e-01
-6.717514e-01	 -6.717514e-01	 7.500000e-01
-6.717514e-01	 -6.717514e-01	 1.125000e+00
-6.717514e-01	 -6.717514e-01	 1.875000e+00
-6.717514e-01	 -6.717514e-01	 3.000000e+00
-6.717514e-01	 -6.717514e-01	 2.250000e+00
-6.717514e-01	 6.717514e-01	 1.500000e+00
-6.717514e-01	 6.717514e-01	 0
-6.717514e-01	 6.717514e-01	 3.750000e-01
-6.717514e-01	 6.717514e-01	 7.500000e-01
-6.717514e-01	 6.717514e-01	 1.125000e+00
-6.717514e-01	 6.717514e-01	 1.875000e+00
-6.717514e-01	 6.717514e-01	 3.000000e+00
-6.717514e-01	 -6.717514e-01	 1.500000e+00
-6.717514e-01	 6.717514e-01	 2.250000e+00
-5.472098e-01	 -8.369955e-01	 0
-5.472098e-01	 -8.369955e-01	 7.500000e-01
-5.472098e-01	 -8.369955e-01	 1.500000e+00
-5.472098e-01	 -8.369955e-01	 2.250000e+00
-5.472098e-01	 -8.369955e-01	 3
-5.472098e-01	 8.369955e-01	 0
-5.472098e-01	 8.369955e-01	 7.500000e-01
-5.472098e-01	 8.369955e-01	 1.500000e+00
-5.472098e-01	 8.369955e-01	 2.250000e+00
-5.472098e-01	 8.369955e-01	 3
-5.335295e-01	 -8.160706e-01	 1.500000e+00
-5.335295e-01	 -8.160706e-01	 2.250000e+00
-5.335295e-01	 8.160706e-01	 0
-5.335295e-01	 8.160706e-01	 3.000000e+00
[...]
POINT_DATA 832
VECTORS displacement float
0	 0	 3.962655e-08
1.788288e-07	 1.155429e-14	 2.556011e-08
2.384862e-07	 1.026797e-14	 1.885472e-14
1.788289e-07	 -1.081976e-14	 -2.556007e-08
2.008353e-13	 -4.153843e-14	 -3.962652e-08
-1.788285e-07	 -6.559616e-14	 -2.556009e-08
-2.384859e-07	 -6.902884e-14	 -1.886866e-14
-1.788286e-07	 -4.321873e-14	 2.556006e-08
0	 0	 3.962650e-08
0	 0	 3.193512e-08
2.012684e-13	 -4.379839e-14	 -3.193510e-08
0	 0	 3.193507e-08
-2.392822e-07	 -7.659114e-14	 -1.693190e-14
2.392825e-07	 1.463520e-14	 1.691867e-14
2.277770e-07	 7.350239e-09	 1.258830e-14
0	 0	 3.745549e-08
1.438552e-13	 -4.123113e-14	 -3.745547e-08
0	 0	 3.745545e-08
-2.277766e-07	 7.350140e-09	 -2.094700e-14
0	 0	 3.745547e-08
2.055885e-13	 -4.782615e-14	 -3.745544e-08
0	 0	 3.745541e-08
2.277769e-07	 -7.350208e-09	 2.092583e-14
-2.277768e-07	 -7.350297e-09	 -1.259428e-14
2.399200e-07	 1.897190e-14	 1.499069e-14
1.797359e-07	 -6.293461e-15	 -1.738984e-08
0	 0	 2.425851e-08
1.797358e-07	 1.854932e-14	 1.738987e-08
-1.797355e-07	 -7.855405e-14	 -1.738986e-08
-1.797356e-07	 -5.370713e-14	 1.738983e-08
0	 0	 2.425847e-08
2.015483e-13	 -4.605895e-14	 -2.425849e-08
-2.399197e-07	 -8.412385e-14	 -1.500320e-14
2.017584e-13	 -4.829683e-14	 -1.656509e-08
-2.405352e-07	 -9.157080e-14	 -1.307097e-14
0	 0	 1.656511e-08
2.405355e-07	 2.325496e-14	 1.305916e-14
0	 0	 1.656508e-08
0	 0	 2.320794e-08
0	 0	 2.320791e-08
1.460587e-13	 -5.199971e-14	 -2.320793e-08
0	 0	 2.320793e-08
0	 0	 2.320789e-08
2.064590e-13	 -4.480412e-14	 -2.320791e-08
2.293205e-07	 -3.870487e-09	 1.688276e-14
2.293206e-07	 3.870530e-09	 1.003984e-14
-2.293204e-07	 -3.870603e-09	 -1.004512e-14
-2.293202e-07	 3.870423e-09	 -1.690242e-14
0	 0	 8.827080e-09
1.802299e-07	 2.551720e-14	 9.182045e-09
1.802300e-07	 -1.777293e-15	 -9.182024e-09
2.017897e-13	 -5.054435e-14	 -8.827065e-09
-1.802296e-07	 -9.144377e-14	 -9.182037e-09
-2.409782e-07	 -9.909008e-14	 -1.112915e-14
-1.802297e-07	 -6.414437e-14	 9.182016e-09
0	 0	 8.827049e-09
2.409785e-07	 2.759675e-14	 1.111806e-14
1.478843e-13	 -6.292848e-14	 -8.919648e-09
0	 0	 8.919659e-09
0	 0	 8.919638e-09
-2.305056e-07	 2.822825e-10	 -1.285840e-14
0	 0	 8.919660e-09
2.068511e-13	 -4.165977e-14	 -8.919642e-09
0	 0	 8.919623e-09
2.305060e-07	 2.823966e-10	 7.493823e-15
-2.305058e-07	 -2.824856e-10	 -7.498392e-15
2.305059e-07	 -2.823414e-10	 1.284025e-14
1.360403e-07	 4.186004e-09	 -1.836341e-08
0	 0	 2.860370e-08
1.830307e-07	 7.545093e-10	 2.012958e-15
4.075268e-14	 -6.750057e-14	 -2.860370e-08
-1.360402e-07	 -4.186128e-09	 -1.836341e-08
-1.830306e-07	 -7.546048e-10	 -2.009501e-15
-1.360403e-07	 -4.186092e-09	 1.836341e-08
0	 0	 2.860370e-08
1.360403e-07	 4.186040e-09	 1.836341e-08
1.360402e-07	 -4.185983e-09	 1.836340e-08
-1.830303e-07	 7.543993e-10	 -1.752480e-14
-1.360400e-07	 4.185954e-09	 1.836336e-08
0	 0	 2.860368e-08
1.830305e-07	 -7.544531e-10	 1.749410e-14
1.553205e-13	 -3.805102e-14	 -2.860365e-08
-1.360400e-07	 4.185933e-09	 -1.836339e-08
0	 0	 2.860363e-08
1.360402e-07	 -4.186004e-09	 -1.836337e-08
1.848377e-07	 2.285453e-09	 1.595480e-14
0	 0	 2.308190e-08
1.848379e-07	 -2.285394e-09	 1.887782e-15
-1.848378e-07	 2.285288e-09	 -1.884355e-15
0	 0	 2.308189e-08
0	 0	 2.308188e-08
-1.848375e-07	 -2.285501e-09	 -1.598471e-14
0	 0	 2.308183e-08
4.369633e-14	 -7.492255e-14	 -2.308189e-08
1.573147e-13	 -3.373268e-14	 -2.308186e-08
1.385485e-07	 -4.233094e-10	 -1.252309e-08
-1.385484e-07	 4.232023e-10	 1.252309e-08
0	 0	 1.756818e-08
1.385484e-07	 -4.232651e-10	 1.252310e-08
4.662382e-14	 -8.231052e-14	 -1.756818e-08
0	 0	 1.756818e-08
-1.385482e-07	 -4.233492e-10	 1.252306e-08
1.385484e-07	 4.233100e-10	 -1.252307e-08
0	 0	 1.756817e-08
1.385483e-07	 4.233262e-10	 1.252309e-08
0	 0	 1.756813e-08
1.865506e-07	 -5.361439e-09	 1.762541e-15
-1.385484e-07	 4.231580e-10	 -1.252310e-08
-1.385481e-07	 -4.233655e-10	 -1.252308e-08
1.592444e-13	 -2.942049e-14	 -1.756815e-08
-1.865505e-07	 5.361322e-09	 -1.759150e-15
1.865504e-07	 5.361500e-09	 1.441770e-14
-1.865502e-07	 -5.361542e-09	 -1.444682e-14
1.611264e-13	 -2.513841e-14	 -1.204241e-08
4.952849e-14	 -8.962790e-14	 -1.204243e-08
0	 0	 1.204243e-08
0	 0	 1.204243e-08
0	 0	 1.204243e-08
0	 0	 1.204239e-08
-1.882446e-07	 8.410238e-09	 -1.632653e-15
1.882446e-07	 -8.410365e-09	 1.636012e-15
-1.882442e-07	 -8.410464e-09	 -1.290641e-14
1.882445e-07	 8.410429e-09	 1.287808e-14
1.408067e-07	 -5.128979e-09	 -6.653163e-09
-1.408066e-07	 5.128800e-09	 -6.653165e-09
-1.408066e-07	 5.128852e-09	 6.653162e-09
-1.898493e-07	 1.152924e-08	 -1.505608e-15
1.408066e-07	 5.128980e-09	 -6.653148e-09
0	 0	 6.486005e-09
0	 0	 6.486001e-09
1.408066e-07	 -5.128926e-09	 6.653166e-09
1.898494e-07	 -1.152937e-08	 1.508937e-15
1.408065e-07	 5.128991e-09	 6.653169e-09
1.898492e-07	 1.152944e-08	 1.133391e-14
-1.898490e-07	 -1.152947e-08	 -1.136143e-14
-1.408064e-07	 -5.129008e-09	 6.653139e-09
0	 0	 6.486008e-09
-1.408063e-07	 -5.129019e-09	 -6.653160e-09
0	 0	 6.485976e-09
5.244919e-14	 -9.699872e-14	 -6.486003e-09
1.629624e-13	 -2.079701e-14	 -6.485992e-09
0	 0	 1.588565e-08
1.266978e-07	 -2.105555e-08	 -9.096014e-15
-5.681343e-14	 -1.210087e-13	 -1.588566e-08
-1.266978e-07	 2.105538e-08	 9.109953e-15
0	 0	 1.588567e-08
0	 0	 1.588562e-08
1.266976e-07	 2.105562e-08	 1.063934e-14
8.681072e-14	 -2.911745e-15	 -1.588561e-08
-1.266975e-07	 -2.105563e-08	 -1.067988e-14
0	 0	 1.588559e-08
1.316400e-07	 -2.793118e-08	 -6.924922e-15
1.316398e-07	 2.793124e-08	 9.187257e-15
-5.075052e-14	 -1.304775e-13	 -9.902462e-09
-1.316400e-07	 2.793099e-08	 6.937875e-15
9.210006e-14	 4.925287e-15	 -9.902430e-09
-1.316397e-07	 -2.793124e-08	 -9.226623e-15
0	 0	 9.902453e-09
0	 0	 9.902472e-09
0	 0	 9.902443e-09
0	 0	 9.902417e-09
1.365146e-07	 -3.495685e-08	 -4.754367e-15
1.365145e-07	 3.495691e-08	 7.733368e-15
0	 0	 3.903246e-09
-4.435391e-14	 -1.398306e-13	 -3.903253e-09
-1.365147e-07	 3.495665e-08	 4.766335e-15
0	 0	 3.903259e-09
0	 0	 3.903250e-09
9.744399e-14	 1.280703e-14	 -3.903239e-09
-1.365143e-07	 -3.495689e-08	 -7.771552e-15
0	 0	 3.903228e-09
0	 0	 -1.474485e-14
4.765119e-08	 -4.765124e-08	 -1.569278e-14
6.874930e-08	 -6.874942e-08	 -1.641405e-14
4.765113e-08	 -4.765133e-08	 -1.435766e-14
-1.062784e-13	 -1.678500e-13	 -8.480733e-15
-4.765133e-08	 4.765102e-08	 3.249556e-15
-6.874945e-08	 6.874918e-08	 1.643685e-14
-4.765127e-08	 4.765111e-08	 2.684264e-14
0	 0	 3.174420e-14
0	 0	 -2.248755e-14
4.765110e-08	 4.765127e-08	 -1.377038e-14
6.874921e-08	 6.874944e-08	 2.392870e-15
4.765112e-08	 4.765130e-08	 1.818336e-14
2.981918e-14	 4.529473e-14	 2.586078e-14
-4.765106e-08	 -4.765122e-08	 1.556900e-14
-6.874916e-08	 -6.874938e-08	 -2.442246e-15
-4.765108e-08	 -4.765124e-08	 -2.007838e-14
0	 0	 -2.932814e-14
7.214063e-08	 -7.214075e-08	 -1.454269e-14
7.214052e-08	 7.214076e-08	 2.494160e-15
0	 0	 -1.371901e-14
-7.214077e-08	 7.214050e-08	 1.456453e-14
0	 0	 2.746803e-14
0	 0	 -1.739833e-14
-7.214048e-08	 -7.214069e-08	 -2.543144e-15
0	 0	 -2.452031e-14
-1.047246e-13	 -1.700104e-13	 -6.854614e-15
3.278852e-14	 4.835076e-14	 2.091187e-14
5.270503e-08	 -5.270508e-08	 -1.295095e-14
-5.270511e-08	 5.270495e-08	 2.036776e-14
0	 0	 -1.269449e-14
-1.030793e-13	 -1.720618e-13	 -5.237522e-15
-7.553570e-08	 7.553543e-08	 1.269950e-14
0	 0	 2.321122e-14
5.270493e-08	 5.270511e-08	 -7.919495e-15
-5.270491e-08	 -5.270507e-08	 -1.476549e-14
-5.270517e-08	 5.270485e-08	 3.209942e-15
-5.270489e-08	 -5.270504e-08	 9.875200e-15
7.553556e-08	 -7.553568e-08	 -1.267862e-14
5.270497e-08	 -5.270517e-08	 -1.058501e-14
0	 0	 -1.233687e-14
3.578716e-14	 5.137395e-14	 1.598676e-14
-7.553540e-08	 -7.553561e-08	 -2.641253e-15
0	 0	 -1.973232e-14
7.553545e-08	 7.553568e-08	 2.592652e-15
5.270495e-08	 5.270514e-08	 1.271335e-14
7.890196e-08	 7.890220e-08	 2.691340e-15
7.890207e-08	 -7.890219e-08	 -1.081233e-14
0	 0	 -1.166815e-14
-1.014132e-13	 -1.740634e-13	 -3.619126e-15
0	 0	 1.894999e-14
0	 0	 -7.270499e-15
3.876429e-14	 5.436470e-14	 1.105699e-14
0	 0	 -1.493993e-14
-7.890191e-08	 -7.890212e-08	 -2.739552e-15
-7.890222e-08	 7.890195e-08	 1.083226e-14
-5.776045e-08	 5.776029e-08	 1.387591e-14
-5.776024e-08	 -5.776040e-08	 -9.432530e-15
0	 0	 -1.064189e-14
5.776037e-08	 -5.776042e-08	 -1.020522e-14
8.229607e-08	 -8.229619e-08	 -8.936856e-15
5.776032e-08	 -5.776052e-08	 -6.801509e-15
-5.776050e-08	 5.776019e-08	 3.172550e-15
0	 0	 1.466259e-14
-8.229621e-08	 8.229594e-08	 8.955826e-15
4.179162e-14	 5.732815e-14	 6.089865e-15
0	 0	 -2.163493e-15
5.776027e-08	 5.776044e-08	 -2.047961e-15
8.229595e-08	 8.229619e-08	 2.792352e-15
5.776029e-08	 5.776047e-08	 7.223136e-15
-5.776021e-08	 -5.776037e-08	 4.160926e-15
0	 0	 -1.011345e-14
-9.961641e-14	 -1.759587e-13	 -1.987597e-15
-8.229589e-08	 -8.229610e-08	 -2.840172e-15
0	 0	 -1.588567e-08
2.105546e-08	 -1.266979e-07	 -1.841639e-14
-1.044122e-13	 -1.769962e-13	 1.588564e-08
-2.105560e-08	 1.266976e-07	 1.844348e-14
0	 0	 -1.588562e-08
0	 0	 -1.588566e-08
2.105543e-08	 1.266978e-07	 -4.924778e-15
-3.131659e-15	 8.961955e-14	 1.588565e-08
-2.105544e-08	 -1.266977e-07	 4.868953e-15
0	 0	 -1.588564e-08
-1.079801e-13	 -1.749562e-13	 9.902453e-09
-2.793123e-08	 1.316398e-07	 1.452614e-14
0	 0	 -9.902463e-09
0	 0	 -9.902453e-09
8.304552e-16	 9.226022e-14	 9.902458e-09
-2.793104e-08	 -1.316399e-07	 3.405321e-15
2.793107e-08	 -1.316401e-07	 -1.450145e-14
0	 0	 -9.902474e-09
0	 0	 -9.902433e-09
2.793104e-08	 1.316400e-07	 -3.461054e-15
3.495669e-08	 1.365147e-07	 -1.999195e-15
3.495674e-08	 -1.365147e-07	 -1.058774e-14
0	 0	 -3.903264e-09
-1.112469e-13	 -1.724025e-13	 3.903249e-09
-3.495689e-08	 1.365145e-07	 1.061001e-14
0	 0	 -3.903234e-09
0	 0	 -3.903254e-09
4.945647e-15	 9.471685e-14	 3.903251e-09
-3.495668e-08	 -1.365145e-07	 1.943557e-15
0	 0	 -3.903248e-09
-4.186103e-09	 -1.360404e-07	 1.836340e-08
-4.186061e-09	 1.360403e-07	 1.836339e-08
0	 0	 -2.860371e-08
-7.545701e-10	 -1.830307e-07	 -1.358499e-14
-6.618885e-14	 -1.169583e-13	 2.860369e-08
4.185980e-09	 1.360402e-07	 1.836342e-08
0	 0	 -2.860367e-08
0	 0	 -2.860368e-08
-7.545480e-10	 1.830305e-07	 -9.192397e-15
-1.138225e-14	 1.111837e-13	 2.860367e-08
4.186039e-09	 -1.360401e-07	 1.836340e-08
7.545319e-10	 -1.830304e-07	 9.132283e-15
4.186045e-09	 -1.360401e-07	 -1.836338e-08
0	 0	 -2.860366e-08
-4.186067e-09	 -1.360403e-07	 -1.836343e-08
7.544764e-10	 1.830305e-07	 1.361224e-14
4.186016e-09	 1.360402e-07	 -1.836339e-08
-4.186054e-09	 1.360402e-07	 -1.836340e-08
-7.240301e-14	 -1.148168e-13	 2.308189e-08
-1.094983e-14	 1.115595e-13	 2.308187e-08
2.285328e-09	 -1.848379e-07	 -1.229823e-14
0	 0	 -2.308191e-08
-2.285430e-09	 1.848378e-07	 1.232403e-14
0	 0	 -2.308187e-08
0	 0	 -2.308188e-08
2.285344e-09	 1.848377e-07	 -8.145734e-15
-2.285360e-09	 -1.848376e-07	 8.085308e-15
0	 0	 -2.308186e-08
-5.361478e-09	 1.865504e-07	 1.104050e-14
-5.361392e-09	 -1.865503e-07	 7.040848e-15
4.232305e-10	 1.385484e-07	 1.252308e-08
-4.232448e-10	 -1.385482e-07	 -1.252307e-08
0	 0	 -1.756820e-08
4.232334e-10	 -1.385485e-07	 -1.252311e-08
0	 0	 -1.756816e-08
-7.855076e-14	 -1.126024e-13	 1.756818e-08
0	 0	 -1.756817e-08
4.232364e-10	 1.385483e-07	 -1.252309e-08
-1.048631e-14	 1.118919e-13	 1.756816e-08
0	 0	 -1.756815e-08
4.231909e-10	 -1.385485e-07	 1.252309e-08
-4.233364e-10	 1.385483e-07	 1.252310e-08
5.361367e-09	 -1.865506e-07	 -1.101614e-14
5.361378e-09	 1.865504e-07	 -7.101580e-15
-4.232507e-10	 -1.385482e-07	 1.252309e-08
-4.232938e-10	 1.385484e-07	 -1.252308e-08
-8.462952e-14	 -1.103809e-13	 1.204243e-08
-8.410407e-09	 1.882445e-07	 9.756104e-15
-8.410307e-09	 -1.882443e-07	 5.994955e-15
0	 0	 -1.204243e-08
0	 0	 -1.204241e-08
-1.001786e-14	 1.121915e-13	 1.204242e-08
0	 0	 -1.204244e-08
0	 0	 -1.204242e-08
8.410287e-09	 -1.882447e-07	 -9.733187e-15
8.410293e-09	 1.882445e-07	 -6.055998e-15
5.128841e-09	 -1.408067e-07	 6.653158e-09
0	 0	 -6.486014e-09
-5.129009e-09	 1.408065e-07	 6.653168e-09
0	 0	 -6.485990e-09
-9.070993e-14	 -1.080431e-13	 6.486002e-09
0	 0	 -6.486003e-09
0	 0	 -6.485989e-09
5.128878e-09	 1.408066e-07	 6.653155e-09
-5.128896e-09	 -1.408064e-07	 6.653160e-09
-5.128891e-09	 -1.408064e-07	 -6.653151e-09
5.128890e-09	 -1.408066e-07	 -6.653174e-09
1.152929e-08	 -1.898494e-07	 -8.444267e-15
-1.152942e-08	 1.898493e-07	 8.465722e-15
-5.128960e-09	 1.408066e-07	 -6.653152e-09
-9.530767e-15	 1.124369e-13	 6.485996e-09
5.128883e-09	 1.408065e-07	 -6.653164e-09
-1.152930e-08	 -1.898491e-07	 4.945729e-15
1.152929e-08	 1.898492e-07	 -5.007083e-15
-7.350279e-09	 -2.277769e-07	 -5.858386e-15
-7.350243e-09	 2.277767e-07	 -1.073360e-14
0	 0	 -3.745549e-08
-3.685818e-14	 -1.802210e-14	 3.745548e-08
0	 0	 -3.745547e-08
0	 0	 -3.745544e-08
-1.053918e-14	 1.122976e-13	 3.745543e-08
0	 0	 -3.745541e-08
7.350227e-09	 2.277769e-07	 5.882477e-15
7.350228e-09	 -2.277765e-07	 1.066972e-14
-3.870579e-09	 -2.293206e-07	 -5.373293e-15
0	 0	 -2.320794e-08
0	 0	 -2.320792e-08
-3.870546e-09	 2.293204e-07	 -8.558346e-15
3.870530e-09	 -2.293202e-07	 8.493149e-15
0	 0	 -2.320791e-08
0	 0	 -2.320789e-08
3.870508e-09	 2.293206e-07	 5.394767e-15
-1.152873e-14	 1.122226e-13	 2.320790e-08
-4.984503e-14	 -1.569877e-14	 2.320793e-08
-1.249986e-14	 1.120040e-13	 8.919637e-09
0	 0	 -8.919657e-09
-6.294463e-14	 -1.340244e-14	 8.919650e-09
0	 0	 -8.919643e-09
0	 0	 -8.919647e-09
0	 0	 -8.919629e-09
2.823658e-10	 2.305059e-07	 4.903360e-15
-2.824548e-10	 -2.305059e-07	 -4.884521e-15
-2.824261e-10	 2.305057e-07	 -6.382649e-15
2.824084e-10	 -2.305055e-07	 6.316137e-15
0	 0	 -3.962654e-08
-2.900336e-14	 -1.788287e-07	 -2.556009e-08
-4.675948e-14	 -2.384861e-07	 1.319591e-15
-4.543905e-14	 -1.788287e-07	 2.556009e-08
-3.062329e-14	 7.291534e-14	 3.962654e-08
-1.070263e-14	 1.788288e-07	 2.556009e-08
3.435426e-15	 2.384862e-07	 -1.299417e-15
5.735330e-15	 1.788288e-07	 -2.556009e-08
0	 0	 -3.962654e-08
0	 0	 -3.193511e-08
-3.638052e-14	 7.312982e-14	 3.193511e-08
0	 0	 -3.193511e-08
2.501802e-15	 2.392825e-07	 -6.029089e-16
-5.397209e-14	 -2.392824e-07	 6.218901e-16
-6.114849e-14	 -2.399199e-07	 -6.928847e-17
-6.068171e-14	 -1.797357e-07	 1.738986e-08
0	 0	 -2.425850e-08
-3.801511e-14	 -1.797358e-07	 -1.738986e-08
-1.674709e-14	 1.797359e-07	 1.738986e-08
5.922888e-15	 1.797358e-07	 -1.738986e-08
0	 0	 -2.425850e-08
-4.210837e-14	 7.323477e-14	 2.425850e-08
1.573622e-15	 2.399200e-07	 8.708514e-17
-4.778166e-14	 7.329578e-14	 1.656510e-08
6.495520e-16	 2.405355e-07	 7.789957e-16
0	 0	 -1.656510e-08
-6.825182e-14	 -2.405354e-07	 -7.623803e-16
0	 0	 -1.656510e-08
0	 0	 -8.827070e-09
-4.697531e-14	 -1.802298e-07	 -9.182035e-09
-7.582558e-14	 -1.802298e-07	 9.182033e-09
-5.349820e-14	 7.322783e-14	 8.827068e-09
-2.272902e-14	 1.802299e-07	 9.182034e-09
-2.712535e-16	 2.409785e-07	 1.476759e-15
6.125749e-15	 1.802299e-07	 -9.182032e-09
0	 0	 -8.827066e-09
-7.541964e-14	 -2.409784e-07	 -1.461340e-15
-3.899167e-14	 2.409781e-07	 -5.784772e-15
0	 0	 -8.827064e-09
-2.586618e-14	 1.802296e-07	 -9.182030e-09
-3.358895e-14	 1.802297e-07	 9.182018e-09
-1.429031e-14	 9.777683e-14	 8.827055e-09
7.271397e-15	 -1.802295e-07	 9.182025e-09
1.881105e-14	 -2.409780e-07	 5.712825e-15
1.499051e-14	 -1.802296e-07	 -9.182014e-09
0	 0	 -8.827047e-09
0	 0	 -1.656509e-08
-3.490479e-14	 2.405351e-07	 -6.734835e-15
0	 0	 -1.656507e-08
-1.278292e-14	 9.772992e-14	 1.656508e-08
1.685419e-14	 -2.405350e-07	 6.663873e-15
-1.127951e-14	 9.764395e-14	 2.425847e-08
1.492942e-14	 -2.399196e-07	 7.612466e-15
0	 0	 -2.425848e-08
-2.031380e-14	 1.797356e-07	 -1.738985e-08
5.713307e-15	 -1.797354e-07	 1.738984e-08
1.177571e-14	 -1.797355e-07	 -1.738983e-08
0	 0	 -2.425845e-08
-3.085557e-14	 2.399197e-07	 -7.682445e-15
-2.637908e-14	 1.797356e-07	 1.738983e-08
-2.675811e-14	 2.392821e-07	 -8.628750e-15
1.298456e-14	 -2.392820e-07	 8.559751e-15
0	 0	 -3.193508e-08
-9.756188e-15	 9.752494e-14	 3.193506e-08
0	 0	 -3.193505e-08
0	 0	 -3.962650e-08
-1.472999e-14	 1.788285e-07	 -2.556007e-08
-2.264506e-14	 2.384859e-07	 -9.576683e-15
-1.912295e-14	 1.788286e-07	 2.556005e-08
-8.238068e-15	 9.736929e-14	 3.962648e-08
4.159617e-15	 -1.788284e-07	 2.556006e-08
1.101671e-14	 -2.384858e-07	 9.508681e-15
8.550478e-15	 -1.788285e-07	 -2.556004e-08
0	 0	 -3.962647e-08
2.823002e-10	 -2.305057e-07	 1.235426e-15
-2.823671e-10	 2.305059e-07	 -1.225848e-15
2.823452e-10	 2.305056e-07	 -4.010651e-15
-2.823721e-10	 -2.305055e-07	 3.934512e-15
0	 0	 -8.919645e-09
0	 0	 -8.919648e-09
0	 0	 -8.919640e-09
-1.904678e-14	 7.089193e-14	 8.919634e-09
0	 0	 -8.919629e-09
-4.728943e-14	 1.239274e-13	 8.919647e-09
-1.431653e-14	 7.006071e-14	 2.320789e-08
-4.459787e-14	 1.249177e-13	 2.320792e-08
-3.870498e-09	 -2.293202e-07	 5.207107e-15
0	 0	 -2.320792e-08
0	 0	 -2.320793e-08
3.870445e-09	 -2.293204e-07	 3.707237e-15
-3.870508e-09	 2.293206e-07	 -3.695983e-15
0	 0	 -2.320790e-08
0	 0	 -2.320788e-08
3.870478e-09	 2.293203e-07	 -5.281304e-15
-7.350224e-09	 2.277769e-07	 -6.170227e-15
-7.350200e-09	 -2.277765e-07	 6.480360e-15
0	 0	 -3.745546e-08
-4.181266e-14	 1.253358e-13	 3.745546e-08
0	 0	 -3.745547e-08
0	 0	 -3.745543e-08
-9.638790e-15	 6.911540e-14	 3.745542e-08
0	 0	 -3.745541e-08
7.350165e-09	 -2.277767e-07	 6.183155e-15
7.350187e-09	 2.277766e-07	 -6.552616e-15
-1.152947e-08	 -1.898491e-07	 1.671585e-15
1.152942e-08	 1.898493e-07	 -1.671120e-15
-5.129004e-09	 -1.408065e-07	 -6.653155e-09
-3.485884e-14	 1.165197e-13	 6.485996e-09
-5.128949e-09	 1.408064e-07	 -6.653154e-09
-1.152939e-08	 1.898491e-07	 -9.752735e-16
1.152934e-08	 -1.898490e-07	 8.973184e-16
5.128924e-09	 -1.408064e-07	 -6.653152e-09
-5.129023e-09	 -1.408064e-07	 6.653158e-09
5.128957e-09	 1.408066e-07	 6.653156e-09
5.128976e-09	 1.408066e-07	 -6.653160e-09
0	 0	 -6.485994e-09
0	 0	 -6.485998e-09
-3.287873e-14	 3.152192e-14	 6.485991e-09
0	 0	 -6.485992e-09
5.128906e-09	 -1.408064e-07	 6.653153e-09
0	 0	 -6.485990e-09
-5.128966e-09	 1.408064e-07	 6.653152e-09
-8.410460e-09	 -1.882444e-07	 2.838594e-15
-8.410386e-09	 1.882443e-07	 -1.136246e-15
0	 0	 -1.204241e-08
0	 0	 -1.204241e-08
-3.737642e-14	 1.155350e-13	 1.204242e-08
0	 0	 -1.204242e-08
0	 0	 -1.204242e-08
8.410407e-09	 1.882445e-07	 -2.837645e-15
8.410344e-09	 -1.882443e-07	 1.059224e-15
-2.989250e-14	 3.035262e-14	 1.204241e-08
4.232772e-10	 -1.385482e-07	 -1.252307e-08
-5.361534e-09	 -1.865503e-07	 3.998749e-15
4.232877e-10	 1.385484e-07	 1.252308e-08
-5.361467e-09	 1.865502e-07	 -1.296003e-15
4.232628e-10	 -1.385482e-07	 1.252307e-08
-4.233120e-10	 1.385482e-07	 1.252307e-08
0	 0	 -1.756816e-08
-4.233405e-10	 -1.385483e-07	 -1.252308e-08
-3.981615e-14	 1.144344e-13	 1.756816e-08
0	 0	 -1.756817e-08
-2.692760e-14	 2.916639e-14	 1.756815e-08
0	 0	 -1.756815e-08
-4.232976e-10	 1.385482e-07	 -1.252308e-08
0	 0	 -1.756815e-08
-4.233624e-10	 -1.385482e-07	 1.252309e-08
4.233096e-10	 1.385484e-07	 -1.252309e-08
5.361478e-09	 1.865505e-07	 -3.997322e-15
5.361429e-09	 -1.865502e-07	 1.219903e-15
0	 0	 -2.308186e-08
-2.285490e-09	 -1.848376e-07	 5.156702e-15
2.285430e-09	 1.848378e-07	 -5.154798e-15
0	 0	 -2.308188e-08
0	 0	 -2.308186e-08
2.285396e-09	 -1.848375e-07	 1.379902e-15
0	 0	 -2.308185e-08
-2.285430e-09	 1.848376e-07	 -1.455073e-15
-4.227648e-14	 1.132874e-13	 2.308187e-08
-2.393129e-14	 2.796701e-14	 2.308185e-08
4.185967e-09	 -1.360401e-07	 -1.836338e-08
4.185998e-09	 1.360401e-07	 -1.836338e-08
-7.544957e-10	 -1.830303e-07	 1.540955e-15
-4.186014e-09	 -1.360401e-07	 -1.836338e-08
0	 0	 -2.860366e-08
7.544135e-10	 -1.830304e-07	 6.321029e-15
-4.471408e-14	 1.120257e-13	 2.860367e-08
-4.186026e-09	 1.360403e-07	 1.836339e-08
-7.544768e-10	 1.830306e-07	 -6.318644e-15
-4.186001e-09	 1.360402e-07	 -1.836340e-08
0	 0	 -2.860368e-08
0	 0	 -2.860365e-08
7.544662e-10	 1.830303e-07	 -1.615190e-15
-2.094227e-14	 2.675077e-14	 2.860365e-08
-4.186025e-09	 -1.360400e-07	 1.836338e-08
0	 0	 -2.860365e-08
4.185942e-09	 -1.360401e-07	 1.836340e-08
4.185987e-09	 1.360401e-07	 1.836338e-08
0	 0	 -3.903241e-09
-4.001850e-15	 6.693037e-14	 3.903241e-09
3.495690e-08	 1.365145e-07	 -5.363352e-16
0	 0	 -3.903242e-09
0	 0	 -3.903241e-09