# vtk DataFile Version 3.0
Unstructured Grid Example
ASCII
DATASET UNSTRUCTURED_GRID
POINTS 1641 float
-9.500000e-01	 0	 0
-9.500000e-01	 0	 3.750000e-01
-9.500000e-01	 0	 1.125000e+00
-9.500000e-01	 0	 1.500000e+00
-9.500000e-01	 0	 1.875000e+00
-9.500000e-01	 0	 2.250000e+00
-9.500000e-01	 0	 2.625000e+00
-9.500000e-01	 0	 3
-9.500000e-01	 0	 7.500000e-01
-9.341401e-01	 -1.728649e-01	 1.500000e+00
-9.341401e-01	 -1.728649e-01	 0
-9.341401e-01	 -1.728649e-01	 3.000000e+00
-9.341401e-01	 1.728649e-01	 2.250000e+00
-9.341401e-01	 1.728649e-01	 0
-9.341401e-01	 1.728649e-01	 1.500000e+00
-9.341401e-01	 1.728649e-01	 3.000000e+00
-9.341401e-01	 -1.728649e-01	 7.500000e-01
-9.341401e-01	 -1.728649e-01	 2.250000e+00
-9.341401e-01	 1.728649e-01	 7.500000e-01
-8.832989e-01	 -3.496900e-01	 1.125000e+00
-8.832989e-01	 -3.496900e-01	 1.875000e+00
-8.832989e-01	 -3.496900e-01	 2.625000e+00
-8.832989e-01	 -3.496900e-01	 2.250000e+00
-8.832989e-01	 3.496900e-01	 1.125000e+00
-8.832989e-01	 -3.496900e-01	 0
-8.832989e-01	 -3.496900e-01	 3.000000e+00
-8.832989e-01	 -3.496900e-01	 3.750000e-01
-8.832989e-01	 -3.496900e-01	 7.500000e-01
-8.832989e-01	 3.496900e-01	 3.750000e-01
-8.832989e-01	 3.496900e-01	 7.500000e-01
-8.832989e-01	 3.496900e-01	 2.250000e+00
-8.832989e-01	 3.496900e-01	 2.625000e+00
-8.832989e-01	 3.496900e-01	 0
-8.832989e-01	 3.496900e-01	 1.875000e+00
-8.832989e-01	 3.496900e-01	 3.000000e+00
-8.832989e-01	 -3.496900e-01	 1.500000e+00
-8.832989e-01	 3.496900e-01	 1.500000e+00
-8.787500e-01	 0	 2.250000e+00
-8.787500e-01	 0	 0
-8.787500e-01	 0	 1.500000e+00
-8.787500e-01	 0	 3
-8.787500e-01	 0	 7.500000e-01
-8.149622e-01	 -3.223238e-01	 7.500000e-01
-8.149622e-01	 3.223238e-01	 7.500000e-01
-8.149622e-01	 -3.223238e-01	 2.250000e+00
-8.149622e-01	 3.223238e-01	 2.250000e+00
-8.149622e-01	 -3.223238e-01	 0
-8.149622e-01	 -3.223238e-01	 1.500000e+00
-8.149622e-01	 -3.223238e-01	 3
-8.149622e-01	 3.223238e-01	 1.500000e+00
-8.149622e-01	 3.223238e-01	 0
-8.149622e-01	 3.223238e-01	 3
-8.075000e-01	 0	 7.500000e-01
-8.075000e-01	 0	 2.250000e+00
-8.075000e-01	 0	 3.750000e-01
-8.075000e-01	 0	 1.875000e+00
-8.075000e-01	 0	 2.625000e+00
-8.075000e-01	 0	 0
-8.075000e-01	 0	 1.125000e+00
-8.075000e-01	 0	 1.500000e+00
-8.075000e-01	 0	 3
-7.951457e-01	 -5.198493e-01	 7.500000e-01
-7.951457e-01	 5.198493e-01	 7.500000e-01
-7.951457e-01	 -5.198493e-01	 0
-7.951457e-01	 -5.198493e-01	 1.500000e+00
-7.951457e-01	 -5.198493e-01	 2.250000e+00
-7.951457e-01	 -5.198493e-01	 3
-7.951457e-01	 5.198493e-01	 0
-7.951457e-01	 5.198493e-01	 1.500000e+00
-7.951457e-01	 5.198493e-01	 2.250000e+00
-7.951457e-01	 5.198493e-01	 3
-7.894916e-01	 -1.451644e-01	 7.500000e-01
-7.894916e-01	 1.451644e-01	 7.500000e-01
-7.894916e-01	 1.451644e-01	 0
-7.894916e-01	 1.451644e-01	 3
-7.894916e-01	 -1.451644e-01	 0
-7.894916e-01	 -1.451644e-01	 1.500000e+00
-7.894916e-01	 -1.451644e-01	 2.250000e+00
-7.894916e-01	 -1.451644e-01	 3
-7.894916e-01	 1.451644e-01	 1.500000e+00
-7.894916e-01	 1.451644e-01	 2.250000e+00
-7.430021e-01	 -2.929055e-01	 1.500000e+00
-7.430021e-01	 2.929055e-01	 1.500000e+00
-7.430021e-01	 -2.929055e-01	 2.250000e+00
-7.430021e-01	 -2.929055e-01	 0
-7.430021e-01	 -2.929055e-01	 3.000000e+00
-7.430021e-01	 2.929055e-01	 3.750000e-01
-7.430021e-01	 -2.929055e-01	 3.750000e-01
-7.430021e-01	 -2.929055e-01	 1.125000e+00
-7.430021e-01	 -2.929055e-01	 1.875000e+00
-7.430021e-01	 -2.929055e-01	 2.625000e+00
-7.430021e-01	 2.929055e-01	 1.125000e+00
-7.430021e-01	 2.929055e-01	 0
-7.430021e-01	 2.929055e-01	 1.875000e+00
-7.430021e-01	 2.929055e-01	 2.250000e+00
-7.430021e-01	 2.929055e-01	 2.625000e+00
-7.430021e-01	 2.929055e-01	 3.000000e+00
-7.430021e-01	 2.929055e-01	 7.500000e-01
-7.430021e-01	 -2.929055e-01	 7.500000e-01
-7.362500e-01	 0	 0
-7.362500e-01	 0	 7.500000e-01
-7.362500e-01	 0	 1.500000e+00
-7.362500e-01	 0	 2.250000e+00
-7.362500e-01	 0	 3
-6.717514e-01	 -6.717514e-01	 2.625000e+00
-6.717514e-01	 6.717514e-01	 2.625000e+00
-6.717514e-01	 -6.717514e-01	 0
-6.717514e-01	 -6.717514e-01	 3.750000e-01
-6.717514e-01	 -6.717514e-01	 7.500000e-01
-6.717514e-01	 -6.717514e-01	 1.125000e+00
-6.717514e-01	 -6.717514e-01	 1.875000e+00
-6.717514e-01	 -6.717514e-01	 3.000000e+00
-6.717514e-01	 -6.717514e-01	 2.250000e+00
-6.717514e-01	 6.717514e-01	 1.500000e+00
-6.717514e-01	 6.717514e-01	 0
-6.717514e-01	 6.717514e-01	 3.750000e-01
-6.717514e-01	 6.717514e-01	 7.500000e-01
-6.717514e-01	 6.717514e-01	 1.125000e+00
-6.717514e-01	 6.717514e-01	 1.875000e+00
-6.717514e-01	 6.717514e-01	 3.000000e+00
-6.717514e-01	 -6.717514e-01	 1.500000e+00
-6.717514e-01	 6.717514e-01	 2.250000e+00
-6.682985e-01	 -2.618048e-01	 0
-6.682985e-01	 -2.618048e-01	 1.500000e+00
-6.682985e-01	 -2.618048e-01	 3
-6.682985e-01	 -2.618048e-01	 7.500000e-01
-6.682985e-01	 -2.618048e-01	 2.250000e+00
-6.682985e-01	 2.618048e-01	 7.500000e-01
-6.682985e-01	 2.618048e-01	 2.250000e+00
-6.682985e-01	 2.618048e-01	 0
-6.682985e-01	 2.618048e-01	 1.500000e+00
-6.682985e-01	 2.618048e-01	 3
-6.665713e-01	 -4.348738e-01	 2.250000e+00
-6.665713e-01	 -4.348738e-01	 7.500000e-01
-6.665713e-01	 4.348738e-01	 7.500000e-01
-6.665713e-01	 4.348738e-01	 2.250000e+00
-6.665713e-01	 -4.348738e-01	 0
-6.665713e-01	 -4.348738e-01	 3
-6.665713e-01	 4.348738e-01	 0
-6.665713e-01	 4.348738e-01	 1.500000e+00
-6.665713e-01	 4.348738e-01	 3
-6.665713e-01	 -4.348738e-01	 1.500000e+00
-6.650000e-01	 0	 7.500000e-01
-6.650000e-01	 0	 0
-6.650000e-01	 0	 3.750000e-01
-6.650000e-01	 0	 1.125000e+00
-6.650000e-01	 0	 1.500000e+00
-6.650000e-01	 0	 1.875000e+00
-6.650000e-01	 0	 2.625000e+00
-6.650000e-01	 0	 3
-6.650000e-01	 0	 2.250000e+00
-6.383743e-01	 -1.144482e-01	 0
-6.383743e-01	 -1.144482e-01	 3.000000e+00
-6.383743e-01	 -1.144482e-01	 7.500000e-01
-6.383743e-01	 -1.144482e-01	 1.500000e+00
-6.383743e-01	 -1.144482e-01	 2.250000e+00
-6.383743e-01	 1.144482e-01	 7.500000e-01
-6.383743e-01	 1.144482e-01	 1.500000e+00
-6.383743e-01	 1.144482e-01	 0
-6.383743e-01	 1.144482e-01	 2.250000e+00
-6.383743e-01	 1.144482e-01	 3.000000e+00
-6.189903e-01	 -6.189903e-01	 0
-6.189903e-01	 -6.189903e-01	 1.500000e+00
-6.189903e-01	 -6.189903e-01	 3.000000e+00
-6.189903e-01	 6.189903e-01	 2.250000e+00
-6.189903e-01	 6.189903e-01	 0
-6.189903e-01	 6.189903e-01	 1.500000e+00
-6.189903e-01	 6.189903e-01	 3.000000e+00
-6.189903e-01	 -6.189903e-01	 2.250000e+00
-6.189903e-01	 -6.189903e-01	 7.500000e-01
-6.189903e-01	 6.189903e-01	 7.500000e-01
-5.937500e-01	 0	 0
-5.937500e-01	 0	 7.500000e-01
-5.937500e-01	 0	 1.500000e+00
-5.937500e-01	 0	 2.250000e+00
-5.937500e-01	 0	 3
-5.917666e-01	 2.294176e-01	 1.875000e+00
-5.917666e-01	 2.294176e-01	 2.250000e+00
-5.917666e-01	 -2.294176e-01	 2.250000e+00
-5.917666e-01	 -2.294176e-01	 0
-5.917666e-01	 -2.294176e-01	 2.625000e+00
-5.917666e-01	 -2.294176e-01	 3
-5.917666e-01	 -2.294176e-01	 1.500000e+00
-5.917666e-01	 -2.294176e-01	 1.875000e+00
-5.917666e-01	 2.294176e-01	 0
-5.917666e-01	 2.294176e-01	 2.625000e+00
-5.917666e-01	 2.294176e-01	 3
-5.917666e-01	 2.294176e-01	 1.500000e+00
-5.917666e-01	 -2.294176e-01	 3.750000e-01
-5.917666e-01	 -2.294176e-01	 7.500000e-01
-5.917666e-01	 -2.294176e-01	 1.125000e+00
-5.917666e-01	 2.294176e-01	 7.500000e-01
-5.917666e-01	 2.294176e-01	 1.125000e+00
-5.917666e-01	 2.294176e-01	 3.750000e-01
-5.620800e-01	 5.620800e-01	 1.125000e+00
-5.620800e-01	 -5.620800e-01	 1.125000e+00
-5.620800e-01	 -5.620800e-01	 3.750000e-01
-5.620800e-01	 -5.620800e-01	 7.500000e-01
-5.620800e-01	 -5.620800e-01	 1.875000e+00
-5.620800e-01	 -5.620800e-01	 2.625000e+00
-5.620800e-01	 5.620800e-01	 3.750000e-01
-5.620800e-01	 5.620800e-01	 7.500000e-01
-5.620800e-01	 5.620800e-01	 1.875000e+00
-5.620800e-01	 -5.620800e-01	 0
-5.620800e-01	 -5.620800e-01	 1.500000e+00
-5.620800e-01	 -5.620800e-01	 2.250000e+00
-5.620800e-01	 -5.620800e-01	 3
-5.620800e-01	 5.620800e-01	 0
-5.620800e-01	 5.620800e-01	 1.500000e+00
-5.620800e-01	 5.620800e-01	 2.250000e+00
-5.620800e-01	 5.620800e-01	 3
-5.620800e-01	 5.620800e-01	 2.625000e+00
-5.250231e-01	 -3.396892e-01	 7.500000e-01
-5.250231e-01	 3.396892e-01	 1.500000e+00
-5.250231e-01	 3.396892e-01	 2.250000e+00
-5.250231e-01	 3.396892e-01	 7.500000e-01
-5.250231e-01	 -3.396892e-01	 2.250000e+00
-5.250231e-01	 -3.396892e-01	 0
-5.250231e-01	 -3.396892e-01	 1.500000e+00
-5.250231e-01	 -3.396892e-01	 3.000000e+00
-5.250231e-01	 3.396892e-01	 0
-5.250231e-01	 3.396892e-01	 3.000000e+00
-5.225000e-01	 0	 1.500000e+00
-5.225000e-01	 0	 2.250000e+00
-5.225000e-01	 0	 0
-5.225000e-01	 0	 3.750000e-01
-5.225000e-01	 0	 7.500000e-01
-5.225000e-01	 0	 1.125000e+00
-5.225000e-01	 0	 1.875000e+00
-5.225000e-01	 0	 2.625000e+00
-5.225000e-01	 0	 3
-5.198493e-01	 7.951457e-01	 7.500000e-01
-5.198493e-01	 -7.951457e-01	 7.500000e-01
-5.198493e-01	 -7.951457e-01	 0
-5.198493e-01	 -7.951457e-01	 1.500000e+00
-5.198493e-01	 -7.951457e-01	 2.250000e+00
-5.198493e-01	 -7.951457e-01	 3
-5.198493e-01	 7.951457e-01	 0
-5.198493e-01	 7.951457e-01	 1.500000e+00
-5.198493e-01	 7.951457e-01	 2.250000e+00
-5.198493e-01	 7.951457e-01	 3
-5.143216e-01	 -1.961513e-01	 2.250000e+00
-5.143216e-01	 1.961513e-01	 7.500000e-01
-5.143216e-01	 1.961513e-01	 1.500000e+00
-5.143216e-01	 -1.961513e-01	 7.500000e-01
-5.143216e-01	 -1.961513e-01	 0
-5.143216e-01	 -1.961513e-01	 3.000000e+00
-5.143216e-01	 -1.961513e-01	 1.500000e+00
-5.143216e-01	 1.961513e-01	 2.250000e+00
-5.143216e-01	 1.961513e-01	 0
-5.143216e-01	 1.961513e-01	 3.000000e+00
-5.020120e-01	 -5.020120e-01	 7.500000e-01
-5.020120e-01	 -5.020120e-01	 1.500000e+00
-5.020120e-01	 5.020120e-01	 7.500000e-01
-5.020120e-01	 5.020120e-01	 1.500000e+00
-5.020120e-01	 -5.020120e-01	 0
-5.020120e-01	 -5.020120e-01	 2.250000e+00
-5.020120e-01	 -5.020120e-01	 3.000000e+00
-5.020120e-01	 5.020120e-01	 0
-5.020120e-01	 5.020120e-01	 2.250000e+00
-5.020120e-01	 5.020120e-01	 3.000000e+00
-4.847636e-01	 8.158725e-02	 7.500000e-01
-4.847636e-01	 -8.158725e-02	 7.500000e-01
[...]
POINT_DATA 1641
SCALARS pres_adim float 1
LOOKUP_TABLE default
-1.176699e+02
-1.101590e+02
-4.644748e+01
-4.155729e-03
4.644102e+01
8.436033e+01
1.101585e+02
1.176687e+02
-8.436130e+01
-6.735299e-03
-3.007252e+02
3.007251e+02
-6.896890e+01
9.757682e+01
1.166157e-04
-9.757678e+01
-2.146890e+02
2.146901e+02
6.896638e+01
-1.533961e+02
1.533895e+02
3.667637e+02
2.797085e+02
1.140177e+02
-3.925038e+02
3.925066e+02
-3.667601e+02
-2.797062e+02
2.733446e+02
2.081815e+02
-2.081834e+02
-2.733454e+02
2.927227e+02
-1.140138e+02
-2.927213e+02
-6.293587e-03
5.069955e-03
8.274443e+01
-1.154051e+02
-3.841483e-03
1.154040e+02
-8.274523e+01
-2.738612e+02
2.035520e+02
2.738636e+02
-2.035541e+02
-3.842795e+02
-5.618311e-03
3.842819e+02
4.576309e-03
2.862049e+02
-2.862034e+02
-7.673267e+01
7.673270e+01
-1.001842e+02
4.223726e+01
1.001836e+02
-1.070287e+02
-4.224028e+01
-2.187952e-03
1.070273e+02
-2.552874e+02
2.835363e+02
-3.585903e+02
-3.527787e-03
2.552879e+02
3.585962e+02
3.979607e+02
7.614286e-03
-2.835338e+02
-3.979604e+02
-1.936269e+02
6.173860e+01
8.735753e+01
-8.735738e+01
-2.712189e+02
-3.265298e-03
1.936291e+02
2.712175e+02
3.481827e-04
-6.174049e+01
-2.670117e-03
2.869531e-03
2.512738e+02
-3.525957e+02
3.525959e+02
2.445659e+02
-3.294580e+02
-1.377942e+02
1.377924e+02
3.294597e+02
1.020106e+02
2.618551e+02
-1.020093e+02
-1.862254e+02
-2.445663e+02
-2.618530e+02
1.862229e+02
-2.512708e+02
-9.555787e+01
-6.851539e+01
-1.529607e-04
6.851642e+01
9.555615e+01
1.721935e+02
-3.279265e+02
-1.843702e+02
-1.721911e+02
-1.308735e+02
-7.163866e+01
7.163775e+01
1.843767e+02
1.308719e+02
5.435129e-03
3.506264e+02
3.279275e+02
2.500542e+02
1.372993e+02
-1.372887e+02
-3.506298e+02
1.244733e-03
-2.500461e+02
-3.064992e+02
1.118866e-03
3.064968e+02
-2.184362e+02
2.184400e+02
1.610312e+02
-1.610346e+02
2.264328e+02
6.609953e-04
-2.264298e+02
2.289479e+02
-2.289472e+02
2.538478e+02
-2.538480e+02
-3.215875e+02
3.215900e+02
3.562942e+02
3.646169e-03
-3.562923e+02
-1.033799e-03
-5.789697e+01
-8.074903e+01
-7.544258e+01
-3.180133e+01
1.831023e-03
3.180510e+01
7.544203e+01
8.074719e+01
5.789907e+01
-1.943022e+02
1.942982e+02
-1.387264e+02
3.832937e-03
1.387310e+02
4.259427e+01
8.294595e-04
6.029255e+01
-4.259502e+01
-6.029175e+01
-1.805191e+02
1.189206e-03
1.805251e+02
-2.448185e+02
3.432735e+02
4.792666e-03
-3.432768e+02
1.281411e+02
-1.281429e+02
2.448257e+02
-6.492320e+01
-4.655398e+01
3.709163e-03
4.655712e+01
6.492115e+01
-7.033651e+01
-1.285074e+02
1.757004e+02
-2.465272e+02
2.300604e+02
2.465224e+02
4.770518e-03
9.622477e+01
1.807075e+02
-1.686429e+02
-1.807036e+02
-1.493441e-03
-2.300623e+02
-1.756956e+02
-9.621621e+01
1.285034e+02
7.033233e+01
1.686437e+02
1.227541e+02
-6.407264e+01
-1.540070e+02
-1.170553e+02
6.407157e+01
1.540072e+02
2.931929e+02
2.235724e+02
-1.227504e+02
-1.649038e+02
1.227318e-03
1.170529e+02
1.649074e+02
3.134953e+02
1.707264e-03
-2.235683e+02
-3.134968e+02
-2.931920e+02
-1.570968e+02
-4.439814e-03
-1.729540e+02
1.729483e+02
1.570982e+02
-2.206539e+02
4.194884e-03
2.206492e+02
2.427511e+02
-2.427460e+02
4.506890e-03
3.536959e+01
-4.931288e+01
-4.582895e+01
-3.536593e+01
-1.930760e+01
1.931524e+01
4.582935e+01
4.931108e+01
1.294292e+02
3.917577e+01
5.417776e+01
5.033315e-03
-3.917534e+01
-5.417303e+01
1.808956e+02
1.704052e-03
-1.294199e+02
-1.809026e+02
1.306579e+02
9.436286e+01
-2.935563e-03
-1.306523e+02
-1.833162e+02
1.833097e+02
7.498381e-03
-9.436696e+01
1.327087e+02
-1.327043e+02
-1.007959e+02
1.258721e-03
1.924269e+02
-2.342837e-03
-1.419953e+02
1.007927e+02
1.419956e+02
2.698079e+02
-1.924274e+02
-2.698072e+02
2.059800e+01
-7.432516e+01
-1.040800e+02
7.319111e-03
1.040758e+02
7.433110e+01
2.918889e+01
1.193424e-03
-2.059748e+01
-2.918759e+01
4.689197e-03
2.465393e+01
-3.437167e+01
-2.465000e+01
3.437047e+01
-4.344030e+01
8.312184e+01
-1.119580e+02
1.044174e+02
1.119554e+02
-1.044214e+02
1.333467e-03
-8.313245e+01
2.125889e+02
-1.985594e+02
-2.125863e+02
4.343955e+01
7.946908e+01
-1.516169e+02
1.985601e+02
-6.041012e-03
1.516118e+02
-7.947259e+01
-4.833572e+01
7.830477e-03
8.202014e+01
-8.201839e+01
-3.076593e-03
3.419321e+01
8.863048e+01
1.155914e+02
-1.155933e+02
-8.862482e+01
8.815868e+01
6.268055e+01
-6.268401e+01
-8.815471e+01
-3.419871e+01
4.834847e+01
-1.243317e+02
1.243261e+02
-1.152939e+02
-3.569976e+01
1.611423e+02
-1.611471e+02
3.569771e+01
4.937844e+01
2.569257e-03
-4.937544e+01
-6.267753e-04
1.152994e+02
-2.239305e+01
-2.066307e+01
-1.606512e+01
-8.698944e+00
4.062729e-03
8.705759e+00
1.606882e+01
2.066471e+01
2.239263e+01
-7.526361e+01
7.526626e+01
-1.057040e+02
1.056979e+02
6.042589e-03
1.143418e+02
-6.980559e-03
-8.146665e+01
-1.143366e+02
8.145997e+01
5.724751e+01
-8.065333e+01
-5.725062e+01
1.432220e-03
8.064906e+01
1.530087e+02
1.091187e+02
-8.557920e-03
-1.530047e+02
-1.091265e+02
5.244161e+01
-7.356535e+01
7.356153e+01
5.053193e+01
-5.052863e+01
-3.591863e+01
-5.243636e+01
3.591662e+01
-2.416834e-03
6.866740e-03
1.046789e+02
2.670167e+02
-1.046690e+02
-2.670164e+02
5.766734e-03
-5.407774e+01
5.407289e+01
-2.064804e+01
2.065005e+01
5.033357e+01
2.496590e+02
1.906325e+02
-1.906270e+02
-2.496580e+02
-6.067297e-04
-5.033349e+01
3.799506e+01
-3.799026e+01
2.614137e+01
-2.355907e-03
-2.614781e+01
-7.691235e+01
7.690903e+01
3.619267e+01
-3.619281e+01
1.074725e+02
-5.583346e-03
-1.074731e+02
-2.582274e+01
5.022746e-03
-3.614412e+01
2.582737e+01
3.614283e+01
7.099710e+00
1.292191e-03
-4.982836e+00
-7.098242e+00
4.984542e+00
1.870523e+02
-1.870477e+02
-3.769734e+01
3.770170e+01
2.619859e+02
-2.619857e+02
-5.365372e+01
-7.496839e-04
5.364900e+01
5.053124e-03
-3.719770e+01
7.083875e+01
3.867794e+01
-2.025209e+01
-5.240148e+01
-4.868983e+01
1.437427e-03
2.025298e+01
4.868618e+01
5.239786e+01
9.932357e+01
9.242209e+01
-8.119935e-03
-3.869163e+01
-9.242200e+01
-9.931994e+01
3.719579e+01
-7.084664e+01
2.099759e-03
2.257050e+02
-4.704341e+01
3.560481e+01
-1.133293e-03
2.414988e+02
-9.462636e+01
-1.724097e+02
-2.257047e+02
-2.414982e+02
-1.931151e+01
1.931178e+01
-5.064696e+01
5.064307e+01
9.463002e+01
1.724117e+02
-3.560213e+01
4.704321e+01
-3.530388e+01
-3.830073e+01
-1.475795e+01
4.688576e-03
1.476598e+01
2.731726e+01
3.530480e+01
3.829925e+01
2.490453e+01
1.769940e+01
-1.769982e+01
-2.299877e+01
-2.490230e+01
9.581021e+00
-1.172952e-03
-2.731285e+01
2.300078e+01
-9.582435e+00
2.116869e+02
-1.563500e-03
-2.116859e+02
-4.626764e+01
-1.603341e-03
4.626462e+01
1.511347e+02
-1.511364e+02
-3.254432e+01
3.254482e+01
-2.891138e+01
-2.052138e+01
1.389273e-03
2.890936e+01
5.474755e+01
3.903757e+01
-6.190985e-03
-5.474490e+01
2.052116e+01
-3.904353e+01
1.445436e+01
3.435506e+01
-3.436182e+01
2.005077e+01
-3.668191e-03
-1.446013e+01
-2.005125e+01
4.798896e+01
-4.798778e+01
-6.507364e-03
4.052942e-04
2.891384e-03
3.365379e-03
-1.679804e+01
1.679824e+01
-3.019714e-03
-2.981734e+01
2.123918e+01
2.981616e+01
-2.123605e+01
1.199205e+01
-1.198834e+01
6.165686e+00
4.357502e+00
-6.164444e+00
-4.355969e+00
2.200303e+01
3.088575e+01
-2.200512e+01
-3.088350e+01
2.807475e+01
-1.230609e+02
-4.985633e-03
1.607659e+02
-3.686501e+01
1.723690e+02
-1.607668e+02
-1.723677e+02
-2.807641e+01
-3.987842e+01
3.686381e+01
3.987611e+01
-6.739718e+01
1.230557e+02
6.738813e+01
-1.516331e+01
-1.956665e-03
1.516014e+01
-2.308724e+01
-7.299080e-03
1.306393e+02
-1.306372e+02
-3.275323e+01
3.275151e+01
9.326067e+01
-9.326806e+01
-2.062143e-03
2.308408e+01
-9.821008e+00
1.867356e+01
-1.272951e+01
1.177232e-03
-2.249782e+00
2.412381e+01
-1.383376e+01
-5.292374e+00
1.086390e-03
5.294467e+00
9.822269e+00
1.272996e+01
1.383366e+01
2.898740e+00
-2.896644e+00
-3.135687e+00
1.221984e+00
3.136486e+00
2.252373e+00
2.617648e+01
1.008889e+01
-3.542962e-03
-1.009413e+01
-1.867655e+01
-2.412372e+01
-2.617533e+01
-1.219055e+00
-1.529581e-03
3.887979e+02
4.123493e-03
-3.888027e+02
-2.650447e+02
2.650465e+02
-2.772114e+02
2.772205e+02
-1.884573e+02
1.884553e+02
3.551662e+01
-9.703507e+00
-7.076667e-03
-3.552939e+01
9.699945e+00
1.806477e+01
-1.779946e-03
-8.477368e+01
9.133276e+01
6.520022e+01
-6.520743e+01
-9.133055e+01
-2.559688e+01
2.559519e+01
2.350628e+01
8.477296e+01
-2.350828e+01
-1.806823e+01
2.507665e+02
3.516992e+02
-3.517018e+02
-1.708932e+02
7.712566e-04
-2.507609e+02
-2.403402e+02
-3.439499e-04
1.708915e+02
2.403411e+02
-4.260861e+00
8.096158e+00
-1.734551e-03
-1.356814e-03
7.628662e+00
-5.482429e+00
-7.627475e+00
4.262971e+00
-6.002814e+00
8.057668e-04
6.003677e+00
-5.334874e+00
1.151016e-03
3.809115e+00
5.335553e+00
-3.806278e+00
2.559039e+00
3.595186e+00
-3.594484e+00
-2.557491e+00
1.135498e+01
-8.097024e+00
-1.135484e+01
1.109346e+01
-7.955354e+00
-1.109366e+01
-2.849260e-03
5.481719e+00
-1.842706e-04
7.952428e+00
-4.029282e+01
-5.726786e-03
5.644954e+01
-5.644691e+01
4.028758e+01
-1.239355e-03
-1.280564e+01
-1.811011e+01
1.810832e+01
1.280274e+01
2.555468e+02
-1.822077e+02
-2.555448e+02
-1.765948e+02
1.765936e+02
2.358051e-03
1.255717e+02
-1.255722e+02
1.822055e+02
-5.871534e-03
-6.956348e-04
1.209858e+01
-3.435195e-03
-1.668814e+00
1.670798e+00
1.271896e+00
3.160717e+00
-1.087163e+01
3.146034e+01
2.245642e+01
-2.245869e+01
-2.890351e+01
-3.145777e+01
-1.210392e+01
-1.788292e+00
1.789266e+00
-1.269468e+00
-6.932775e-01
4.635452e-04
3.381821e+00
2.412267e+00
-1.322361e+00
-2.411531e+00
-3.160242e+00
-3.382188e+00
-8.466965e+00
-1.195606e+01
-4.506133e+00
-7.454099e-04
4.505157e+00
8.465308e+00
1.086979e+01
1.195409e+01
2.890451e+01
6.950840e-01
1.322272e+00
1.009837e+02
-7.139841e+01
1.416358e+02
-8.254188e-03
-1.009899e+02
-1.416312e+02
-1.004008e+02
3.528070e-03
1.003979e+02
7.139886e+01
3.829618e+01
-1.482074e+01
2.722549e-01
-9.745264e+00
2.185388e-03
5.371874e+01
-4.732900e-03
-3.829929e+01
-5.371469e+01
-2.091015e-03
2.078596e+01
-2.078342e+01
1.482046e+01
-2.998023e+00
-2.018046e-01
-1.427465e-01
2.022909e-01
8.713079e-06
1.449969e-01
3.834228e-01
-3.013803e-04
-2.707201e-01
-3.841002e-01
-1.450205e+00
1.448672e+00
-5.469542e-04
1.023050e+00
9.745212e+00
-1.370318e+01
1.370049e+01
3.576466e-04
-4.037195e+01
2.871603e+01
4.036873e+01
-2.871556e+01
4.200636e+00
-4.122720e-04
-4.199114e+00
2.999751e+00
-1.022577e+00
9.378100e+00
-9.379502e+00
-3.917258e+00
3.916993e+00
7.249132e+00
-7.247991e+00
3.786701e+02
3.537619e+02
1.477977e+02
1.606255e-03
-1.477907e+02
-2.696266e+02
-3.537639e+02
-3.786769e+02
2.696343e+02
-2.644775e+02
3.714228e+02
1.252793e-03
-3.714293e+02
2.644846e+02
2.453547e+02
-2.453494e+02
3.218656e+02
-1.344662e+02
-3.218666e+02
3.445739e+02
1.344693e+02
-3.450928e-04
-3.445779e+02
3.078145e+02
2.191877e+02
-2.295488e-03
-2.191850e+02
-3.078160e+02
1.853496e+02
2.602984e+02
2.426767e+02
1.013740e+02
-4.271732e-03
-1.013794e+02
-2.426756e+02
-2.602972e+02
-1.853497e+02
2.094843e+02
1.491700e+02
-5.930572e-03
-1.491725e+02
-2.094804e+02
-6.236345e-03
-1.134251e+02
1.592727e+02
1.476913e+02
1.134214e+02
6.167937e+01
-6.168956e+01
-1.476892e+02
-1.592679e+02
-5.954487e-03
-7.914967e+01
1.111442e+02
7.914569e+01
-1.111388e+02
7.249063e+01
6.673107e+01
5.162762e+01
2.785985e+01
-4.670660e-03
-2.786717e+01
-5.163057e+01
-6.672913e+01
-7.248579e+01
2.754342e-04
-8.509338e-04
2.895151e-04
3.078552e-04
-4.085022e-04
7.968794e-04
8.829317e-04
6.708477e-04
1.396095e-04
-1.017867e+01
7.249090e+00
1.017598e+01
-7.248141e+00
4.757026e-04
-7.249106e+01
-6.673159e+01
-5.162759e+01
-2.785869e+01
5.237547e-03
2.786722e+01
5.163060e+01
6.672958e+01
7.248726e+01
-1.111448e+02
-7.914558e+01
1.111412e+02
7.914934e+01
6.754475e-03
-1.592736e+02
-1.476920e+02
-1.134206e+02
-6.167777e+01
6.168884e+01
1.476906e+02
1.592713e+02
7.183182e-03
1.134242e+02
-2.094856e+02
-1.491686e+02
6.674712e-03
1.491711e+02
2.094846e+02
1.853472e+02
-2.603010e+02
-2.426778e+02
-1.013706e+02
4.684521e-03
1.013768e+02
2.426774e+02
2.603024e+02
-1.853468e+02
-3.078184e+02
-2.191838e+02
2.329892e-03
2.191815e+02
3.078219e+02
-3.445791e+02
-1.344631e+02
-4.681126e-05
3.445844e+02
-3.218681e+02
1.344603e+02
3.218684e+02
-2.453498e+02
2.453449e+02
-2.644787e+02
-3.714295e+02
-1.928853e-03
3.714365e+02
2.644718e+02
-2.696284e+02
-3.786769e+02
-3.537651e+02
-1.477901e+02
-2.403710e-03
1.477830e+02
2.696209e+02
3.537657e+02
3.786839e+02
9.380052e+00
1.017887e+01
-1.017694e+01
-8.244102e-04
-9.378267e+00
-3.916061e+00
3.917777e+00
1.023606e+00
-4.903418e-04
-4.200352e+00
-2.998355e+00
-9.296236e-05
4.197842e+00
1.450616e+00
-6.147183e-05
-1.449867e+00
-7.834737e-04
2.871537e+01
4.037194e+01
-1.934610e-03
-2.871592e+01
-4.036798e+01
1.370326e+01
-1.370095e+01
-3.828545e-01
-2.708339e-01
2.723433e-01
3.824926e-01
2.023771e-01
-1.432863e-01
-2.038855e-01
1.442815e-01
2.999357e+00
-1.481953e+01
1.482159e+01
-2.078610e+01
2.078288e+01
-5.371926e+01
5.129618e-03
3.829968e+01
5.371536e+01
-3.829582e+01
-9.744601e+00
9.745651e+00
-1.021836e+00
1.965222e-03
-5.760890e-04
-7.139961e+01
1.004007e+02
-2.757966e-03
-1.003954e+02
-1.416363e+02
9.116330e-03
1.009900e+02
1.416334e+02
7.139811e+01
-1.009835e+02
1.087159e+01
1.322855e+00
-1.270544e+00
-1.105339e-03
-2.890466e+01
1.195650e+01
8.466517e+00
4.506646e+00
6.390484e-04
-4.504792e+00
-8.465094e+00
-1.086999e+01
-1.195404e+01
-2.411249e+00
-3.381333e+00
-1.321872e+00
-5.833455e-05
2.412676e+00
3.160292e+00
3.380951e+00
1.788619e+00
1.270958e+00
-1.670775e+00
-1.790575e+00
1.669892e+00
-2.245572e+01
1.210436e+01
-3.146071e+01
-1.209729e+01
3.619517e-03
2.245941e+01
2.890333e+01
3.145768e+01
-3.159866e+00
6.938689e-01
-6.946481e-01
-1.822046e+02
6.429399e-03
1.255736e+02
-2.070354e-03
-1.255739e+02
1.765927e+02
-1.765901e+02
-2.555464e+02
1.822076e+02
2.555477e+02
-1.280297e+01
1.811085e+01
-1.810775e+01
1.280451e+01
1.555561e-03
-4.028731e+01
-5.645026e+01
5.644746e+01
6.364167e-03
4.029339e+01
-1.135463e+01
1.135408e+01
-7.952937e+00
2.558369e+00
-1.988703e-03
-3.808114e+00
-5.480732e+00
2.480037e-03
-1.109292e+01
7.955481e+00
1.109338e+01
-8.095858e+00
1.070499e-03
8.097542e+00
-2.558078e+00
5.335162e+00
-5.336667e+00
3.807541e+00
6.002834e+00
4.262163e+00
-4.262062e+00
-6.004617e+00
-1.306899e-03
-7.629112e+00
5.483125e+00
7.626940e+00
1.394454e-03
-3.594805e+00
-7.175145e-04
3.593463e+00
2.403344e+02
-4.926488e-04
-1.708952e+02
-2.403374e+02
-6.299461e-04
2.507602e+02
1.708969e+02
-3.516986e+02
3.517047e+02
-2.507650e+02
2.350829e+01
1.806654e+01
-8.477350e+01
-2.350627e+01
2.559809e+01
-2.559448e+01
-9.133282e+01
-6.520062e+01
6.520833e+01
9.133111e+01
8.477385e+01
2.245015e-03
-1.806511e+01
-9.699732e+00
3.553008e+01
7.904887e-03
9.703133e+00
-3.551601e+01
1.884622e+02
-1.884597e+02
-2.772189e+02
2.772101e+02
2.650368e+02
-2.650425e+02
-3.887973e+02
-4.025013e-03
3.888054e+02
2.220155e-04
3.135840e+00
-2.898464e+00
-3.137296e+00
-2.617609e+01
-1.008900e+01
2.969332e-03
1.009454e+01
1.867647e+01
2.412346e+01
2.617512e+01
2.250564e+00
1.219056e+00
-1.221999e+00
1.383329e+01
5.293001e+00
-1.378590e-03
-5.294153e+00
-9.821788e+00
-1.273040e+01
-1.383423e+01
-2.412366e+01
2.897418e+00
-2.123910e-03
-2.251902e+00
1.272990e+01
-1.867410e+01
9.822078e+00
-2.308434e+01
2.401255e-03
9.326933e+01
-9.326160e+01
3.275476e+01
-3.275111e+01
-1.306382e+02
1.306374e+02
7.974782e-03
2.308540e+01
1.958057e-03
-1.515954e+01
1.516170e+01
-1.230577e+02
-6.738979e+01
6.739948e+01
3.987999e+01
-3.686401e+01
-3.987700e+01
2.807450e+01
-1.723658e+02
1.607665e+02
1.723664e+02
3.686526e+01
-1.607652e+02
5.405012e-03
1.230632e+02
-2.807434e+01
-4.357419e+00
1.198895e+01
-3.088573e+01
2.200482e+01
3.088334e+01
-2.200366e+01
2.123683e+01
2.981682e+01
-2.123904e+01
-2.981671e+01
2.344559e-03
-6.165838e+00
4.355873e+00
6.164121e+00
1.679778e+01
-1.679868e+01
-1.199194e+01
-3.920451e-03
-1.376663e-03
-3.811572e-03
6.718494e-03
-4.798715e+01
4.798768e+01
-2.005140e+01
4.464870e-03
1.446088e+01
2.005101e+01
3.436148e+01
-3.435750e+01
-1.445463e+01
3.904297e+01
-2.052104e+01
-5.474697e+01
-3.903917e+01
6.030871e-03
5.474519e+01
2.891029e+01
2.052206e+01
-1.228358e-03
-2.890972e+01
3.254228e+01
-3.254341e+01
-1.511377e+02
1.511397e+02
4.626917e+01
9.891124e-04
-4.626717e+01
-2.116814e+02
1.691186e-03
2.116830e+02
-1.770011e+01
9.582110e+00
-2.300091e+01
3.530420e+01
2.731318e+01
-1.476644e+01
-9.581508e+00
3.619223e-04
-2.490501e+01
1.769915e+01
2.299900e+01
2.490238e+01
3.829997e+01
1.475776e+01
-5.405262e-03
-2.731749e+01
-3.530480e+01
-3.829961e+01
-4.704452e+01
3.559993e+01
-1.724157e+02
-9.463426e+01
5.064834e+01
-5.064749e+01
1.930899e+01
-1.931000e+01
-2.414915e+02
9.463139e+01
1.724141e+02
2.257029e+02
2.414934e+02
-3.192105e-05
-3.560239e+01
4.704347e+01
-2.257029e+02
-2.030771e-03
7.084567e+01
-3.719590e+01
-9.932273e+01
-9.242216e+01
8.253352e-03
3.869197e+01
9.242140e+01
9.932076e+01
5.239990e+01
4.868940e+01
-1.018870e-03
-2.025256e+01
-4.868689e+01
-5.239789e+01
2.025231e+01
-3.867876e+01
-7.084100e+01
3.719800e+01
-4.827619e-03
5.365514e+01
-7.777954e-04
-5.365513e+01
-2.619769e+02
2.619793e+02
-3.769833e+01
3.769481e+01
1.870531e+02
-1.870574e+02
-4.985523e+00
-2.265535e-03
-7.100427e+00
4.982004e+00
7.098426e+00
3.614345e+01
-5.911577e-03
-2.582786e+01
-3.614302e+01
2.582226e+01
-1.074687e+02
5.707272e-03
1.074703e+02
-3.619031e+01
3.619004e+01
-7.691261e+01
7.691409e+01
2.641284e-03
2.614993e+01
-2.614392e+01
3.798766e+01
-3.799151e+01
5.033332e+01
-1.061885e-03
-2.496562e+02
-1.906377e+02
1.906325e+02
2.496553e+02
2.064512e+01
-2.064767e+01
-5.033554e+01
5.407909e+01
-5.407939e+01
-5.511299e-03
-2.670076e+02
1.046755e+02
2.670097e+02
-1.046842e+02
-7.398814e-03
1.771305e-03
-3.591816e+01
5.243612e+01
3.591743e+01
-5.053281e+01
5.052930e+01
7.356431e+01
-7.356178e+01
-5.244218e+01
1.091254e+02
-1.530079e+02
-1.091208e+02
9.090111e-03
1.530057e+02
8.065156e+01
5.725076e+01
-9.372374e-04
-8.064879e+01
-5.724774e+01
-8.146169e+01
-1.143425e+02
7.054899e-03
8.146503e+01
1.143381e+02
-6.025627e-03
1.057021e+02
-1.056977e+02
-7.526701e+01
7.526392e+01
2.239236e+01
2.066258e+01
1.606376e+01
8.698152e+00
-4.947631e-03
-8.706666e+00
-1.606957e+01
-2.066459e+01
-2.239291e+01
-1.153046e+02
6.126610e-05
-4.937185e+01
-3.251535e-03
4.936826e+01
-3.570278e+01
-1.611354e+02
1.611390e+02
3.570458e+01
1.153001e+02
1.243305e+02
-1.243262e+02
-4.834895e+01
3.419773e+01
-8.816037e+01
-6.268208e+01
6.268216e+01
8.815607e+01
1.155931e+02
8.862423e+01
-1.155918e+02
-8.863123e+01
-3.419336e+01
2.741968e-03
8.201831e+01
-8.202141e+01
-7.959583e-03
4.833546e+01
7.947304e+01
-1.516133e+02
-1.985596e+02
6.850062e-03
1.516160e+02
-7.946954e+01
-4.343978e+01
-2.125881e+02
1.985591e+02
2.125874e+02
8.313260e+01
1.044206e+02
-1.089248e-03
1.119559e+02
-1.044177e+02
-1.119545e+02
-8.312295e+01
4.343999e+01
3.437121e+01
2.464789e+01
-3.437119e+01
-2.465454e+01
-5.451842e-03
-2.919002e+01
-1.864483e-03
2.059643e+01
2.918738e+01
-7.433127e+01
1.040801e+02
-7.676154e-03
-1.040769e+02
7.432307e+01
-2.060012e+01
-2.698071e+02
1.924273e+02
2.698081e+02
1.419927e+02
-1.007934e+02
-1.419938e+02
-1.924274e+02
3.218022e-03
1.007971e+02
-1.594250e-03
-1.327112e+02
1.327062e+02
9.436467e+01
-7.206969e-03
1.833154e+02
-1.833094e+02
1.306516e+02
3.105041e-03
-9.436345e+01
-1.306585e+02
-1.808868e+02
-2.721651e-03
1.294283e+02
1.808912e+02
-5.416939e+01
-5.890060e-03
3.918161e+01
5.416364e+01
-3.918186e+01
-1.294356e+02
4.931346e+01
4.582811e+01
3.536292e+01
1.930642e+01
-1.931556e+01
-4.583014e+01
-4.931319e+01
-5.031487e-03
-3.536945e+01
-2.427546e+02
2.427508e+02
2.206499e+02
-3.791254e-03
-2.206451e+02
-1.571003e+02
-1.729469e+02
5.481035e-03
1.729502e+02
1.570991e+02
2.931916e+02
-3.134942e+02
-6.459646e-04
2.235693e+02
3.134969e+02
1.649007e+02
-1.977327e-03
-1.170539e+02
-1.649051e+02
-2.931914e+02
-2.235721e+02
1.227523e+02
-1.540075e+02
1.540061e+02
1.170573e+02
-6.407268e+01
6.407237e+01
-1.227556e+02
-1.686452e+02
-1.285021e+02
-7.033020e+01
9.621728e+01
1.756956e+02
2.300619e+02
1.940321e-03
-1.807114e+02
1.686434e+02
1.807068e+02
-4.032358e-03
-9.622548e+01
2.465264e+02
-2.300602e+02
-2.465207e+02
-1.757011e+02
1.285046e+02
7.033406e+01
6.492505e+01
4.655050e+01
-3.994418e-03
-4.655601e+01
-6.492442e+01
-2.448253e+02
1.281457e+02
-1.281425e+02
-3.432719e+02
-3.665994e-03
3.432760e+02