# vtk DataFile Version 3.0
Unstructured Grid Example
ASCII
DATASET UNSTRUCTURED_GRID
POINTS 1641 float
-9.500000e-01	 0	 0
-9.500000e-01	 0	 3.750000e-01
-9.500000e-01	 0	 1.125000e+00
-9.500000e-01	 0	 1.500000e+00
-9.500000e-01	 0	 1.875000e+00
-9.500000e-01	 0	 2.250000e+00
-9.500000e-01	 0	 2.625000e+00
-9.500000e-01	 0	 3
-9.500000e-01	 0	 7.500000e-01
-9.341401e-01	 -1.728649e-01	 1.500000e+00
-9.341401e-01	 -1.728649e-01	 0
-9.341401e-01	 -1.728649e-01	 3.000000e+00
-9.341401e-01	 1.728649e-01	 2.250000e+00
-9.341401e-01	 1.728649e-01	 0
-9.341401e-01	 1.728649e-01	 1.500000e+00
-9.341401e-01	 1.728649e-01	 3.000000e+00
-9.341401e-01	 -1.728649e-01	 7.500000e-01
-9.341401e-01	 -1.728649e-01	 2.250000e+00
-9.341401e-01	 1.728649e-01	 7.500000e-01
-8.832989e-01	 -3.496900e-01	 1.125000e+00
-8.832989e-01	 -3.496900e-01	 1.875000e+00
-8.832989e-01	 -3.496900e-01	 2.625000e+00
-8.832989e-01	 -3.496900e-01	 2.250000e+00
-8.832989e-01	 3.496900e-01	 1.125000e+00
-8.832989e-01	 -3.496900e-01	 0
-8.832989e-01	 -3.496900e-01	 3.000000e+00
-8.832989e-01	 -3.496900e-01	 3.750000e-01
-8.832989e-01	 -3.496900e-01	 7.500000e-01
-8.832989e-01	 3.496900e-01	 3.750000e-01
-8.832989e-01	 3.496900e-01	 7.500000e-01
-8.832989e-01	 3.496900e-01	 2.250000e+00
-8.832989e-01	 3.496900e-01	 2.625000e+00
-8.832989e-01	 3.496900e-01	 0
-8.832989e-01	 3.496900e-01	 1.875000e+00
-8.832989e-01	 3.496900e-01	 3.000000e+00
-8.832989e-01	 -3.496900e-01	 1.500000e+00
-8.832989e-01	 3.496900e-01	 1.500000e+00
-8.787500e-01	 0	 2.250000e+00
-8.787500e-01	 0	 0
-8.787500e-01	 0	 1.500000e+00
-8.787500e-01	 0	 3
-8.787500e-01	 0	 7.500000e-01
-8.149622e-01	 -3.223238e-01	 7.500000e-01
-8.149622e-01	 3.223238e-01	 7.500000e-01
-8.149622e-01	 -3.223238e-01	 2.250000e+00
-8.149622e-01	 3.223238e-01	 2.250000e+00
-8.149622e-01	 -3.223238e-01	 0
-8.149622e-01	 -3.223238e-01	 1.500000e+00
-8.149622e-01	 -3.223238e-01	 3
-8.149622e-01	 3.223238e-01	 1.500000e+00
-8.149622e-01	 3.223238e-01	 0
-8.149622e-01	 3.223238e-01	 3
-8.075000e-01	 0	 7.500000e-01
-8.075000e-01	 0	 2.250000e+00
-8.075000e-01	 0	 3.750000e-01
-8.075000e-01	 0	 1.875000e+00
-8.075000e-01	 0	 2.625000e+00
-8.075000e-01	 0	 0
-8.075000e-01	 0	 1.125000e+00
-8.075000e-01	 0	 1.500000e+00
-8.075000e-01	 0	 3
-7.951457e-01	 -5.198493e-01	 7.500000e-01
-7.951457e-01	 5.198493e-01	 7.500000e-01
-7.951457e-01	 -5.198493e-01	 0
-7.951457e-01	 -5.198493e-01	 1.500000e+00
-7.951457e-01	 -5.198493e-01	 2.250000e+00
-7.951457e-01	 -5.198493e-01	 3
-7.951457e-01	 5.198493e-01	 0
-7.951457e-01	 5.198493e-01	 1.500000e+00
-7.951457e-01	 5.198493e-01	 2.250000e+00
-7.951457e-01	 5.198493e-01	 3
-7.894916e-01	 -1.451644e-01	 7.500000e-01
-7.894916e-01	 1.451644e-01	 7.500000e-01
-7.894916e-01	 1.451644e-01	 0
-7.894916e-01	 1.451644e-01	 3
-7.894916e-01	 -1.451644e-01	 0
-7.894916e-01	 -1.451644e-01	 1.500000e+00
-7.894916e-01	 -1.451644e-01	 2.250000e+00
-7.894916e-01	 -1.451644e-01	 3
-7.894916e-01	 1.451644e-01	 1.500000e+00
-7.894916e-01	 1.451644e-01	 2.250000e+00
-7.430021e-01	 -2.929055e-01	 1.500000e+00
-7.430021e-01	 2.929055e-01	 1.500000e+00
-7.430021e-01	 -2.929055e-01	 2.250000e+00
-7.430021e-01	 -2.929055e-01	 0
-7.430021e-01	 -2.929055e-01	 3.000000e+00
-7.430021e-01	 2.929055e-01	 3.750000e-01
-7.430021e-01	 -2.929055e-01	 3.750000e-01
-7.430021e-01	 -2.929055e-01	 1.125000e+00
-7.430021e-01	 -2.929055e-01	 1.875000e+00
-7.430021e-01	 -2.929055e-01	 2.625000e+00
-7.430021e-01	 2.929055e-01	 1.125000e+00
-7.430021e-01	 2.929055e-01	 0
-7.430021e-01	 2.929055e-01	 1.875000e+00
-7.430021e-01	 2.929055e-01	 2.250000e+00
-7.430021e-01	 2.929055e-01	 2.625000e+00
-7.430021e-01	 2.929055e-01	 3.000000e+00
-7.430021e-01	 2.929055e-01	 7.500000e-01
-7.430021e-01	 -2.929055e-01	 7.500000e-01
-7.362500e-01	 0	 0
-7.362500e-01	 0	 7.500000e-01
-7.362500e-01	 0	 1.500000e+00
-7.362500e-01	 0	 2.250000e+00
-7.362500e-01	 0	 3
-6.717514e-01	 -6.717514e-01	 2.625000e+00
-6.717514e-01	 6.717514e-01	 2.625000e+00
-6.717514e-01	 -6.717514e-01	 0
-6.717514e-01	 -6.717514e-01	 3.750000e-01
-6.717514e-01	 -6.717514e-01	 7.500000e-01
-6.717514e-01	 -6.717514e-01	 1.125000e+00
-6.717514e-01	 -6.717514e-01	 1.875000e+00
-6.717514e-01	 -6.717514e-01	 3.000000e+00
-6.717514e-01	 -6.717514e-01	 2.250000e+00
-6.717514e-01	 6.717514e-01	 1.500000e+00
-6.717514e-01	 6.717514e-01	 0
-6.717514e-01	 6.717514e-01	 3.750000e-01
-6.717514e-01	 6.717514e-01	 7.500000e-01
-6.717514e-01	 6.717514e-01	 1.125000e+00
-6.717514e-01	 6.717514e-01	 1.875000e+00
-6.717514e-01	 6.717514e-01	 3.000000e+00
-6.717514e-01	 -6.717514e-01	 1.500000e+00
-6.717514e-01	 6.717514e-01	 2.250000e+00
-6.682985e-01	 -2.618048e-01	 0
-6.682985e-01	 -2.618048e-01	 1.500000e+00
-6.682985e-01	 -2.618048e-01	 3
-6.682985e-01	 -2.618048e-01	 7.500000e-01
-6.682985e-01	 -2.618048e-01	 2.250000e+00
-6.682985e-01	 2.618048e-01	 7.500000e-01
-6.682985e-01	 2.618048e-01	 2.250000e+00
-6.682985e-01	 2.618048e-01	 0
-6.682985e-01	 2.618048e-01	 1.500000e+00
-6.682985e-01	 2.618048e-01	 3
-6.665713e-01	 -4.348738e-01	 2.250000e+00
-6.665713e-01	 -4.348738e-01	 7.500000e-01
-6.665713e-01	 4.348738e-01	 7.500000e-01
-6.665713e-01	 4.348738e-01	 2.250000e+00
-6.665713e-01	 -4.348738e-01	 0
-6.665713e-01	 -4.348738e-01	 3
-6.665713e-01	 4.348738e-01	 0
-6.665713e-01	 4.348738e-01	 1.500000e+00
-6.665713e-01	 4.348738e-01	 3
-6.665713e-01	 -4.348738e-01	 1.500000e+00
-6.650000e-01	 0	 7.500000e-01
-6.650000e-01	 0	 0
-6.650000e-01	 0	 3.750000e-01
-6.650000e-01	 0	 1.125000e+00
-6.650000e-01	 0	 1.500000e+00
-6.650000e-01	 0	 1.875000e+00
-6.650000e-01	 0	 2.625000e+00
-6.650000e-01	 0	 3
-6.650000e-01	 0	 2.250000e+00
-6.383743e-01	 -1.144482e-01	 0
-6.383743e-01	 -1.144482e-01	 3.000000e+00
-6.383743e-01	 -1.144482e-01	 7.500000e-01
-6.383743e-01	 -1.144482e-01	 1.500000e+00
-6.383743e-01	 -1.144482e-01	 2.250000e+00
-6.383743e-01	 1.144482e-01	 7.500000e-01
-6.383743e-01	 1.144482e-01	 1.500000e+00
-6.383743e-01	 1.144482e-01	 0
-6.383743e-01	 1.144482e-01	 2.250000e+00
-6.383743e-01	 1.144482e-01	 3.000000e+00
-6.189903e-01	 -6.189903e-01	 0
-6.189903e-01	 -6.189903e-01	 1.500000e+00
-6.189903e-01	 -6.189903e-01	 3.000000e+00
-6.189903e-01	 6.189903e-01	 2.250000e+00
-6.189903e-01	 6.189903e-01	 0
-6.189903e-01	 6.189903e-01	 1.500000e+00
-6.189903e-01	 6.189903e-01	 3.000000e+00
-6.189903e-01	 -6.189903e-01	 2.250000e+00
-6.189903e-01	 -6.189903e-01	 7.500000e-01
-6.189903e-01	 6.189903e-01	 7.500000e-01
-5.937500e-01	 0	 0
-5.937500e-01	 0	 7.500000e-01
-5.937500e-01	 0	 1.500000e+00
-5.937500e-01	 0	 2.250000e+00
-5.937500e-01	 0	 3
-5.917666e-01	 2.294176e-01	 1.875000e+00
-5.917666e-01	 2.294176e-01	 2.250000e+00
-5.917666e-01	 -2.294176e-01	 2.250000e+00
-5.917666e-01	 -2.294176e-01	 0
-5.917666e-01	 -2.294176e-01	 2.625000e+00
-5.917666e-01	 -2.294176e-01	 3
-5.917666e-01	 -2.294176e-01	 1.500000e+00
-5.917666e-01	 -2.294176e-01	 1.875000e+00
-5.917666e-01	 2.294176e-01	 0
-5.917666e-01	 2.294176e-01	 2.625000e+00
-5.917666e-01	 2.294176e-01	 3
-5.917666e-01	 2.294176e-01	 1.500000e+00
-5.917666e-01	 -2.294176e-01	 3.750000e-01
-5.917666e-01	 -2.294176e-01	 7.500000e-01
-5.917666e-01	 -2.294176e-01	 1.125000e+00
-5.917666e-01	 2.294176e-01	 7.500000e-01
-5.917666e-01	 2.294176e-01	 1.125000e+00
-5.917666e-01	 2.294176e-01	 3.750000e-01
-5.620800e-01	 5.620800e-01	 1.125000e+00
-5.620800e-01	 -5.620800e-01	 1.125000e+00
-5.620800e-01	 -5.620800e-01	 3.750000e-01
-5.620800e-01	 -5.620800e-01	 7.500000e-01
-5.620800e-01	 -5.620800e-01	 1.875000e+00
-5.620800e-01	 -5.620800e-01	 2.625000e+00
-5.620800e-01	 5.620800e-01	 3.750000e-01
-5.620800e-01	 5.620800e-01	 7.500000e-01
-5.620800e-01	 5.620800e-01	 1.875000e+00
-5.620800e-01	 -5.620800e-01	 0
-5.620800e-01	 -5.620800e-01	 1.500000e+00
-5.620800e-01	 -5.620800e-01	 2.250000e+00
-5.620800e-01	 -5.620800e-01	 3
-5.620800e-01	 5.620800e-01	 0
-5.620800e-01	 5.620800e-01	 1.500000e+00
-5.620800e-01	 5.620800e-01	 2.250000e+00
-5.620800e-01	 5.620800e-01	 3
-5.620800e-01	 5.620800e-01	 2.625000e+00
-5.250231e-01	 -3.396892e-01	 7.500000e-01
-5.250231e-01	 3.396892e-01	 1.500000e+00
-5.250231e-01	 3.396892e-01	 2.250000e+00
-5.250231e-01	 3.396892e-01	 7.500000e-01
-5.250231e-01	 -3.396892e-01	 2.250000e+00
-5.250231e-01	 -3.396892e-01	 0
-5.250231e-01	 -3.396892e-01	 1.500000e+00
-5.250231e-01	 -3.396892e-01	 3.000000e+00
-5.250231e-01	 3.396892e-01	 0
-5.250231e-01	 3.396892e-01	 3.000000e+00
-5.225000e-01	 0	 1.500000e+00
-5.225000e-01	 0	 2.250000e+00
-5.225000e-01	 0	 0
-5.225000e-01	 0	 3.750000e-01
-5.225000e-01	 0	 7.500000e-01
-5.225000e-01	 0	 1.125000e+00
-5.225000e-01	 0	 1.875000e+00
-5.225000e-01	 0	 2.625000e+00
-5.225000e-01	 0	 3
-5.198493e-01	 7.951457e-01	 7.500000e-01
-5.198493e-01	 -7.951457e-01	 7.500000e-01
-5.198493e-01	 -7.951457e-01	 0
-5.198493e-01	 -7.951457e-01	 1.500000e+00
-5.198493e-01	 -7.951457e-01	 2.250000e+00
-5.198493e-01	 -7.951457e-01	 3
-5.198493e-01	 7.951457e-01	 0
-5.198493e-01	 7.951457e-01	 1.500000e+00
-5.198493e-01	 7.951457e-01	 2.250000e+00
-5.198493e-01	 7.951457e-01	 3
-5.143216e-01	 -1.961513e-01	 2.250000e+00
-5.143216e-01	 1.961513e-01	 7.500000e-01
-5.143216e-01	 1.961513e-01	 1.500000e+00
-5.143216e-01	 -1.961513e-01	 7.500000e-01
-5.143216e-01	 -1.961513e-01	 0
-5.143216e-01	 -1.961513e-01	 3.000000e+00
-5.143216e-01	 -1.961513e-01	 1.500000e+00
-5.143216e-01	 1.961513e-01	 2.250000e+00
-5.143216e-01	 1.961513e-01	 0
-5.143216e-01	 1.961513e-01	 3.000000e+00
-5.020120e-01	 -5.020120e-01	 7.500000e-01
-5.020120e-01	 -5.020120e-01	 1.500000e+00
-5.020120e-01	 5.020120e-01	 7.500000e-01
-5.020120e-01	 5.020120e-01	 1.500000e+00
-5.020120e-01	 -5.020120e-01	 0
-5.020120e-01	 -5.020120e-01	 2.250000e+00
-5.020120e-01	 -5.020120e-01	 3.000000e+00
-5.020120e-01	 5.020120e-01	 0
-5.020120e-01	 5.020120e-01	 2.250000e+00
-5.020120e-01	 5.020120e-01	 3.000000e+00
-4.847636e-01	 8.158725e-02	 7.500000e-01
-4.847636e-01	 -8.158725e-02	 7.500000e-01
[...]
POINT_DATA 1641
SCALARS pres_adim float 1
LOOKUP_TABLE default
1.126173e+02
1.115782e+02
1.067091e+02
1.059596e+02
1.066842e+02
1.089677e+02
1.115880e+02
1.126538e+02
1.089935e+02
-7.369249e+01
-7.107786e+01
-7.104745e+01
2.588586e+02
2.639120e+02
2.546955e+02
2.639194e+02
-7.246815e+01
-7.248536e+01
2.588671e+02
-2.400756e+02
-2.400585e+02
-2.420574e+02
-2.409732e+02
3.305294e+02
-2.424940e+02
-2.425109e+02
-2.420524e+02
-2.409894e+02
3.366725e+02
3.333790e+02
3.334005e+02
3.366622e+02
3.380199e+02
3.305540e+02
3.379880e+02
-2.397801e+02
3.296328e+02
1.067443e+02
1.103387e+02
1.037780e+02
1.103749e+02
1.067700e+02
-2.352594e+02
3.259366e+02
-2.352439e+02
3.259578e+02
-2.367294e+02
-2.340775e+02
-2.367460e+02
3.222442e+02
3.305043e+02
3.304729e+02
9.925244e+01
9.923005e+01
1.016076e+02
9.714847e+01
1.016161e+02
1.025562e+02
9.716995e+01
9.648577e+01
1.025877e+02
-3.319217e+02
2.956948e+02
-3.359853e+02
-3.285396e+02
-3.318876e+02
-3.360330e+02
2.985785e+02
2.933919e+02
2.957241e+02
2.985411e+02
-6.478528e+01
2.337247e+02
2.382850e+02
2.382919e+02
-6.351001e+01
-6.590969e+01
-6.480091e+01
-6.348349e+01
2.299519e+02
2.337171e+02
-2.146666e+02
2.964481e+02
-2.157094e+02
-2.170429e+02
-2.170547e+02
3.027866e+02
-2.166577e+02
-2.149184e+02
-2.149065e+02
-2.166611e+02
2.972599e+02
3.040014e+02
2.972789e+02
2.998414e+02
3.027785e+02
3.039760e+02
2.998244e+02
-2.157204e+02
9.159294e+01
8.862377e+01
8.613323e+01
8.860434e+01
9.161957e+01
-3.048760e+02
1.471636e+02
-3.063006e+02
-3.048746e+02
-3.013363e+02
-2.982387e+02
-2.982352e+02
-3.063104e+02
-3.013311e+02
1.474891e+02
1.471084e+02
1.471585e+02
1.472986e+02
1.474416e+02
1.474310e+02
1.471178e+02
-2.972553e+02
1.472930e+02
-1.875310e+02
-1.855227e+02
-1.875382e+02
-1.864086e+02
-1.864026e+02
2.606258e+02
2.606381e+02
2.642799e+02
2.576633e+02
2.642607e+02
-2.974103e+02
-2.974360e+02
2.654591e+02
2.654831e+02
-3.010680e+02
-3.011057e+02
2.680412e+02
2.633940e+02
2.680105e+02
-2.944232e+02
7.506394e+01
7.757991e+01
7.684273e+01
7.348853e+01
7.295219e+01
7.347436e+01
7.684819e+01
7.760078e+01
7.504786e+01
-4.330541e+01
-4.328855e+01
-4.428328e+01
-4.514690e+01
-4.429514e+01
1.679226e+02
1.651816e+02
1.712264e+02
1.679160e+02
1.712321e+02
-2.994396e+02
-2.905366e+02
-2.994492e+02
1.439797e+02
1.437963e+02
1.441737e+02
1.438055e+02
-2.945511e+02
-2.945560e+02
1.439852e+02
6.248067e+01
6.044109e+01
5.872614e+01
6.042865e+01
6.249562e+01
2.084545e+02
2.102530e+02
-1.490542e+02
-1.499178e+02
-1.496690e+02
-1.499213e+02
-1.483859e+02
-1.485375e+02
2.131896e+02
2.123160e+02
2.131771e+02
2.078551e+02
-1.496685e+02
-1.490560e+02
-1.485397e+02
2.102460e+02
2.084468e+02
2.123196e+02
1.319786e+02
-2.669483e+02
-2.728792e+02
-2.697158e+02
-2.669450e+02
-2.728815e+02
1.317139e+02
1.318448e+02
1.319721e+02
-2.741550e+02
-2.660703e+02
-2.697120e+02
-2.741642e+02
1.316670e+02
1.320244e+02
1.318416e+02
1.316726e+02
1.317172e+02
-2.031650e+02
1.813323e+02
1.827642e+02
1.827533e+02
-2.031555e+02
-2.056218e+02
-2.011450e+02
-2.056390e+02
1.845204e+02
1.845043e+02
4.461455e+01
4.592504e+01
4.750035e+01
4.701587e+01
4.593486e+01
4.497572e+01
4.496865e+01
4.701789e+01
4.751082e+01
-5.502510e+01
-1.604299e+02
-1.647915e+02
-1.568420e+02
-1.604598e+02
-1.647494e+02
-5.822451e+01
-5.239414e+01
-5.506065e+01
-5.817861e+01
-1.095846e+02
1.567572e+02
1.549608e+02
-1.095834e+02
-1.101794e+02
-1.101795e+02
-1.091292e+02
1.567590e+02
1.589608e+02
1.589546e+02
-2.320835e+02
-2.289309e+02
1.134528e+02
1.136186e+02
-2.359216e+02
-2.320806e+02
-2.359305e+02
1.132889e+02
1.134515e+02
1.132908e+02
9.030209e+01
-2.079291e+01
-2.019148e+01
-2.132283e+01
-2.018425e+01
-2.079997e+01
9.212035e+01
8.878591e+01
9.029666e+01
9.212363e+01
3.121580e+01
3.213427e+01
3.323751e+01
3.214080e+01
3.324323e+01
-1.815453e+02
8.976717e+01
-1.864289e+02
-1.855528e+02
-1.864371e+02
-1.855497e+02
-1.809388e+02
8.976738e+01
8.952327e+01
8.956173e+01
8.952277e+01
-1.815423e+02
-1.834096e+02
8.966402e+01
8.956089e+01
8.980549e+01
8.966430e+01
-1.834119e+02
-7.247507e+01
-7.241676e+01
1.074839e+02
1.074827e+02
1.051847e+02
1.055148e+02
-7.268779e+01
-7.294258e+01
-7.294330e+01
-7.268621e+01
1.079534e+02
1.064313e+02
1.064307e+02
1.079500e+02
1.055150e+02
-7.247682e+01
-7.304685e+01
-7.304673e+01
-5.011700e+01
-1.431686e+02
-5.296878e+01
-5.293461e+01
-1.431458e+02
-1.470463e+02
-1.399326e+02
-1.470155e+02
-4.771660e+01
-5.009035e+01
2.161965e+01
2.137751e+01
2.089090e+01
2.045891e+01
2.027384e+01
2.045619e+01
2.088661e+01
2.137786e+01
2.162308e+01
-9.597232e+01
-9.597049e+01
-9.710738e+01
-9.711184e+01
-9.504708e+01
8.884646e+01
8.730281e+01
8.799497e+01
8.884156e+01
8.799392e+01
-1.324025e+02
-1.345737e+02
-1.324045e+02
-1.306292e+02
-1.345810e+02
6.461837e+01
6.473193e+01
6.484475e+01
6.461621e+01
6.473244e+01
-4.186650e+01
-4.203395e+01
-4.203309e+01
6.438110e+01
6.438010e+01
6.346914e+01
-4.186504e+01
6.347090e+01
6.272558e+01
-4.174542e+01
3.717237e+01
3.409565e+01
3.714539e+01
3.413174e+01
3.754705e+01
-2.379228e+02
-2.379050e+02
-2.302269e+02
-2.302420e+02
-2.365464e+02
3.464295e+01
3.598880e+01
3.596601e+01
3.465628e+01
-2.292852e+02
-2.365513e+02
-2.331907e+02
-2.331759e+02
-9.595550e+01
-9.376354e+01
-9.596352e+01
-3.653184e+01
-3.652215e+01
-9.860475e+01
-9.859744e+01
-3.852563e+01
-3.485997e+01
-3.851348e+01
-4.409471e+00
-4.650056e+00
-4.131951e+00
-4.411953e+00
-4.129708e+00
3.221343e+01
3.097393e+01
3.153612e+01
3.221469e+01
3.153850e+01
3.575544e+01
3.573308e+01
-2.284194e+02
-2.284337e+02
3.390053e+01
3.393552e+01
-2.330922e+02
-2.245845e+02
-2.330750e+02
3.728405e+01
-8.595666e+01
4.202565e+01
4.208215e+01
-8.509519e+01
-8.737359e+01
-8.694632e+01
-8.479556e+01
-8.509310e+01
-8.694740e+01
-8.737914e+01
4.194456e+01
4.196665e+01
4.210536e+01
4.208343e+01
4.196637e+01
4.194204e+01
-8.595462e+01
4.202576e+01
3.540020e+01
3.281330e+01
-2.140429e+02
-2.110132e+02
-2.074940e+02
3.233103e+01
3.504800e+01
3.399443e+01
3.282246e+01
3.235705e+01
-2.083463e+02
-2.083572e+02
-2.152812e+02
-2.152684e+02
3.506766e+01
3.401160e+01
-2.110026e+02
-2.140392e+02
-2.042176e+01
-2.043489e+01
-2.034324e+01
-2.033842e+01
-2.034375e+01
-2.037776e+01
-2.042054e+01
-2.043373e+01
3.337406e+01
3.287019e+01
3.286930e+01
3.320329e+01
3.337376e+01
3.258007e+01
3.245563e+01
-2.037729e+01
3.320350e+01
3.257950e+01
2.991871e+01
3.256769e+01
2.993477e+01
-1.885846e+02
-1.817540e+02
-1.885763e+02
3.136566e+01
3.135400e+01
-1.848340e+02
-1.848409e+02
-4.858154e+01
-4.781458e+01
-4.718887e+01
-4.858438e+01
2.332931e+01
2.337713e+01
2.342532e+01
2.332671e+01
-4.781258e+01
2.337718e+01
-4.319724e+01
-1.995060e+01
-1.995134e+01
-4.443610e+01
-4.216575e+01
-4.319633e+01
-4.444071e+01
-2.093949e+01
-2.093981e+01
-1.912560e+01
1.458624e+01
-4.972435e+00
-2.564861e+01
-4.817117e+00
-4.815423e+00
2.471773e+01
-2.617800e+01
-2.588622e+01
-2.617744e+01
-2.588700e+01
-4.900207e+00
-4.899990e+00
1.508992e+01
1.481279e+01
1.509072e+01
1.481220e+01
2.492425e+01
2.518080e+01
2.492393e+01
2.517979e+01
-1.507963e+02
2.744055e+01
2.839626e+01
2.663379e+01
-1.529318e+02
2.630893e+01
2.663469e+01
2.631513e+01
-1.507929e+02
-1.538227e+02
-1.529305e+02
-1.538187e+02
2.816161e+01
2.744680e+01
2.816683e+01
-1.489259e+02
-1.483060e+02
-1.489287e+02
-1.144168e+02
2.367493e+01
2.216885e+01
2.216647e+01
-1.166921e+02
-1.166918e+02
2.298694e+01
2.298577e+01
-1.125487e+02
-1.144175e+02
-2.263808e+01
1.106580e+01
-2.289301e+01
2.857770e+00
2.943504e+00
1.104856e+01
-2.301484e+01
-2.241634e+01
-2.232540e+01
-2.241492e+01
-2.263632e+01
-2.289112e+01
-2.301507e+01
3.013905e+00
3.012681e+00
3.050531e+00
2.883745e+00
3.052279e+00
2.943411e+00
1.104325e+01
1.108319e+01
1.109180e+01
1.108401e+01
1.106582e+01
1.104796e+01
1.104141e+01
2.883611e+00
-3.242325e+02
2.155997e+02
2.137299e+02
2.155954e+02
-3.332562e+02
-3.332837e+02
2.145567e+02
2.145491e+02
-3.283272e+02
-3.283063e+02
1.873620e+01
-7.893705e+01
1.884698e+01
1.873883e+01
-7.893545e+01
-7.988715e+01
-7.859373e+01
1.802507e+01
1.787680e+01
1.840225e+01
1.840286e+01
1.787235e+01
-8.146015e+01
-8.146176e+01
-8.097923e+01
1.802737e+01
-8.097853e+01
-7.988710e+01
1.947628e+02
1.957150e+02
1.957094e+02
-2.972655e+02
1.940216e+02
1.947694e+02
-3.017205e+02
-2.935702e+02
-2.972485e+02
-3.017429e+02
-9.990250e+00
4.880367e+00
4.893301e+00
-9.843660e+00
-1.044536e+01
-1.011762e+01
-1.044615e+01
-9.989105e+00
-1.014498e+01
-9.860213e+00
-1.014338e+01
-2.846878e+00
-2.822586e+00
-2.836215e+00
-2.844749e+00
-2.836506e+00
4.482152e+00
4.556951e+00
4.558155e+00
4.482286e+00
4.873139e+00
4.880341e+00
4.872532e+00
-7.617834e+00
-7.323913e+00
-7.620085e+00
-7.074650e+00
-1.011973e+01
4.426344e+00
-7.323978e+00
1.339110e+01
1.362491e+01
1.311318e+01
1.310878e+01
1.338903e+01
-4.877606e+01
-4.954664e+01
-5.048537e+01
-5.048827e+01
-4.954628e+01
1.443267e+02
1.436238e+02
1.443185e+02
-2.197035e+02
-2.197159e+02
-2.138142e+02
-2.164700e+02
-2.164789e+02
1.436189e+02
1.430699e+02
1.452836e+00
9.140371e+00
9.167498e+00
-3.002466e+00
-2.999763e+00
-2.968117e+00
1.445079e+00
-2.768306e+01
8.941191e+00
9.061050e+00
9.062876e+00
8.974839e+00
8.939931e+00
9.142667e+00
-3.012140e+00
-3.009708e+00
-2.968564e+00
-2.936960e+00
-2.926826e+00
1.447380e+00
1.446167e+00
1.450904e+00
1.446096e+00
1.445140e+00
1.448152e+00
-2.734003e+01
-2.785348e+01
-2.704219e+01
-2.691379e+01
-2.704039e+01
-2.734027e+01
-2.768454e+01
-2.785584e+01
8.973911e+00
-2.936280e+00
1.450403e+00
8.215743e+01
-1.202955e+02
8.257990e+01
8.183003e+01
8.216043e+01
8.257222e+01
-1.220628e+02
-1.188403e+02
-1.220685e+02
-1.202930e+02
3.334558e+01
1.106328e+01
1.921255e-01
-1.783153e+01
-4.515391e+01
3.354496e+01
3.319146e+01
3.334728e+01
3.354265e+01
1.102755e+01
1.111021e+01
1.111127e+01
1.106206e+01
1.149985e+00
-4.022488e-01
-4.040997e-01
-3.992624e-01
-3.986108e-01
-4.041945e-01
1.970924e-01
1.964838e-01
1.918874e-01
1.989310e-01
-3.736069e+00
-3.736006e+00
-3.602636e+00
-3.667585e+00
-1.783191e+01
-1.809540e+01
-1.809693e+01
-1.761155e+01
-4.633115e+01
-4.568593e+01
-4.633433e+01
-4.568577e+01
1.128909e+00
1.174202e+00
1.131636e+00
1.149403e+00
-3.667279e+00
-8.646883e+00
-8.645821e+00
8.533698e+00
8.533293e+00
8.583581e+00
8.583903e+00
3.208242e+02
3.198308e+02
3.153126e+02
3.146655e+02
3.153424e+02
3.174281e+02
3.198202e+02
3.207920e+02
3.174021e+02
3.109522e+02
3.142954e+02
3.082292e+02
3.142630e+02
3.109263e+02
2.890397e+02
2.890613e+02
2.912431e+02
2.871675e+02
2.912339e+02
2.921459e+02
2.871437e+02
2.865530e+02
2.921183e+02
2.608687e+02
2.580915e+02
2.558628e+02
2.581088e+02
2.608453e+02
2.186072e+02
2.209448e+02
2.202515e+02
2.171919e+02
2.167290e+02
2.172044e+02
2.202451e+02
2.209260e+02
2.186200e+02
1.779046e+02
1.760277e+02
1.745146e+02
1.760356e+02
1.778911e+02
1.326280e+02
1.337892e+02
1.352134e+02
1.347667e+02
1.337841e+02
1.329381e+02
1.329431e+02
1.347629e+02
1.352033e+02
9.281372e+01
9.361773e+01
9.460497e+01
9.361537e+01
9.459910e+01
6.150489e+01
6.128728e+01
6.085277e+01
6.047872e+01
6.032231e+01
6.048051e+01
6.085405e+01
6.128651e+01
6.150204e+01
1.822879e-03
4.372781e-03
-2.971839e-04
-3.166279e-04
1.493117e-03
-3.270656e-03
-3.516350e-03
-1.920676e-03
-7.341846e-04
-8.674239e+00
-8.588109e+00
-8.674300e+00
-8.587464e+00
-8.511316e+00
-6.150254e+01
-6.128627e+01
-6.085276e+01
-6.048138e+01
-6.032515e+01
-6.047986e+01
-6.085313e+01
-6.128803e+01
-6.150564e+01
-9.460227e+01
-9.361568e+01
-9.460652e+01
-9.361492e+01
-9.281733e+01
-1.352084e+02
-1.347649e+02
-1.337872e+02
-1.329432e+02
-1.329397e+02
-1.347670e+02
-1.352156e+02
-1.326319e+02
-1.337836e+02
-1.778969e+02
-1.760340e+02
-1.745176e+02
-1.760275e+02
-1.779074e+02
-2.186073e+02
-2.209305e+02
-2.202470e+02
-2.172047e+02
-2.167306e+02
-2.171933e+02
-2.202514e+02
-2.209478e+02
-2.186193e+02
-2.608476e+02
-2.581091e+02
-2.558628e+02
-2.580918e+02
-2.608716e+02
-2.921183e+02
-2.871678e+02
-2.865514e+02
-2.921488e+02
-2.912330e+02
-2.871440e+02
-2.912419e+02
-2.890623e+02
-2.890400e+02
-3.109536e+02
-3.142608e+02
-3.082265e+02
-3.142978e+02
-3.109265e+02
-3.174296e+02
-3.207892e+02
-3.198178e+02
-3.153425e+02
-3.146623e+02
-3.153122e+02
-3.174022e+02
-3.198291e+02
-3.208265e+02
8.643984e+00
8.677244e+00
8.679930e+00
8.512193e+00
8.646679e+00
-8.534889e+00
-8.534173e+00
3.662784e+00
-1.936145e-01
-1.125748e+00
-1.154568e+00
-1.172705e+00
-1.124958e+00
3.739135e+00
3.604627e+00
3.742760e+00
4.013406e-01
4.568605e+01
4.633276e+01
4.515232e+01
4.568571e+01
4.633369e+01
1.809802e+01
1.810077e+01
-1.936992e-01
-1.981278e-01
-1.984597e-01
-1.906023e-01
4.055617e-01
3.975092e-01
4.074714e-01
3.978994e-01
-1.155047e+00
-1.106504e+01
-1.106610e+01
-1.110735e+01
-1.110757e+01
-3.354244e+01
-3.319381e+01
-3.334777e+01
-3.354346e+01
-3.334622e+01
1.782930e+01
1.782954e+01
3.662535e+00
-1.102784e+01
1.761184e+01
1.202967e+02
1.220645e+02
1.188371e+02
1.220606e+02
-8.257827e+01
-8.183403e+01
-8.215866e+01
-8.257903e+01
1.202959e+02
-8.215729e+01
2.768270e+01
-1.451347e+00
2.962917e+00
2.928692e+00
-8.973996e+00
2.785432e+01
2.734064e+01
2.704147e+01
2.691349e+01
2.704004e+01
2.733900e+01
2.768464e+01
2.785792e+01
-1.450841e+00
-1.444280e+00
-1.450644e+00
-1.450357e+00
-1.451172e+00
-1.445973e+00
-1.441130e+00
3.015347e+00
2.963043e+00
2.998983e+00
3.016549e+00
2.999262e+00
-9.062505e+00
-9.143081e+00
-8.938967e+00
-9.142944e+00
-9.169274e+00
-9.064615e+00
-8.974835e+00
-8.938217e+00
-1.447705e+00
2.936276e+00
2.936040e+00
-1.436223e+02
-1.430722e+02
2.164721e+02
2.138130e+02
2.164796e+02
2.197133e+02
2.197013e+02
-1.443253e+02
-1.436207e+02
-1.443291e+02
4.954671e+01
5.048424e+01
5.048813e+01
4.954964e+01
4.877433e+01
-1.338842e+01
-1.311155e+01
-1.310969e+01
-1.362845e+01
-1.339166e+01
-4.870520e+00
-4.867349e+00
7.324358e+00
-4.486510e+00
2.824891e+00
2.831972e+00
1.011735e+01
7.075322e+00
7.618845e+00
7.322450e+00
7.623341e+00
-4.882768e+00
-4.891390e+00
-4.883416e+00
-4.486536e+00
2.849960e+00
2.850847e+00
2.831611e+00
1.014784e+01
9.986016e+00
9.985864e+00
1.014828e+01
9.861028e+00
1.044802e+01
1.011587e+01
1.044899e+01
9.842341e+00
-4.553870e+00
-4.423643e+00
-4.552021e+00
3.017453e+02
2.935730e+02
2.972646e+02
3.017229e+02
-1.940214e+02
-1.947642e+02
2.972484e+02
-1.957111e+02
-1.957216e+02
-1.947701e+02
8.097794e+01
7.989226e+01
-1.802659e+01
8.097921e+01
8.145640e+01
8.146103e+01
-1.787857e+01
-1.839886e+01
-1.840437e+01
-1.787320e+01
-1.802546e+01
7.859151e+01
7.988787e+01
7.893472e+01
-1.874072e+01
-1.885122e+01
7.893863e+01
-1.873674e+01
3.283051e+02
3.283255e+02
-2.145579e+02
-2.145498e+02
3.332888e+02
3.332610e+02
-2.155939e+02
-2.137290e+02
-2.156080e+02
3.242370e+02
-3.047574e+00
-3.015294e+00
-3.047350e+00
-1.104170e+01
-1.108239e+01
-1.109054e+01
-1.108453e+01
-1.106691e+01
-1.104782e+01
-1.103830e+01
-2.946951e+00
-2.882929e+00
-2.883064e+00
2.301769e+01
2.241538e+01
2.232488e+01
2.241484e+01
2.263512e+01
2.289163e+01
2.301789e+01
-1.104942e+01
-3.015177e+00
-2.855441e+00
-2.946093e+00
2.289150e+01
-1.106553e+01
2.263534e+01
1.144177e+02
1.125470e+02
-2.298902e+01
-2.298148e+01
1.166863e+02
1.166919e+02
-2.217482e+01
-2.216571e+01
-2.367853e+01
1.144228e+02
1.483056e+02
1.489251e+02
1.489320e+02
-2.743762e+01
-2.815955e+01
-2.817024e+01
1.538152e+02
1.529318e+02
1.538232e+02
1.507999e+02
-2.632236e+01
-2.663249e+01
-2.630811e+01
1.529301e+02
-2.663674e+01
-2.839850e+01
-2.744847e+01
1.507936e+02
-1.481412e+01
4.897697e+00
-2.517844e+01
-2.492425e+01
-2.517726e+01
-2.492374e+01
2.588495e+01
2.618083e+01
2.588593e+01
2.617993e+01
-2.471632e+01
-1.508693e+01
-1.481310e+01
-1.508764e+01
4.820053e+00
4.818430e+00
4.899187e+00
2.564875e+01
-1.458411e+01
4.974078e+00
1.912422e+01
2.093368e+01
2.094206e+01
4.443548e+01
4.216142e+01
4.319526e+01
4.444171e+01
1.995126e+01
1.995795e+01
4.320047e+01
-2.337646e+01
4.781334e+01
-2.332962e+01
-2.337344e+01
-2.342550e+01
-2.332580e+01
4.858432e+01
4.781389e+01
4.718642e+01
4.858530e+01
1.848421e+02
1.848342e+02
-3.135275e+01
-3.136708e+01
1.885758e+02
1.817556e+02
1.885865e+02
-2.993965e+01
-3.256834e+01
-2.992052e+01
-3.286920e+01
-3.257832e+01
-3.320370e+01
2.042037e+01
2.037645e+01
2.034536e+01
-3.257848e+01
-3.245421e+01
-3.337092e+01
-3.286825e+01
-3.320441e+01
-3.337248e+01
2.043803e+01
2.034422e+01
2.033886e+01
2.037854e+01
2.041995e+01
2.043539e+01
2.140444e+02
2.110118e+02
-3.399505e+01
-3.505020e+01
2.152713e+02
2.152848e+02
2.083570e+02
2.083477e+02
-3.235860e+01
-3.506767e+01
-3.401266e+01
-3.281490e+01
-3.233529e+01
2.074975e+02
2.110024e+02
2.140407e+02
-3.282141e+01
-3.539987e+01
-4.202369e+01
8.595671e+01
-4.194691e+01
-4.196682e+01
-4.210648e+01
-4.208426e+01
-4.196499e+01
-4.194305e+01
8.737659e+01
8.694707e+01
8.479209e+01
8.509272e+01
8.694871e+01
8.737810e+01
8.509468e+01
-4.207990e+01
-4.201956e+01
8.595748e+01
-3.728360e+01
2.330808e+02
2.245893e+02
2.330974e+02
-3.393409e+01
-3.390666e+01
2.284192e+02
2.284302e+02
-3.575611e+01
-3.573504e+01
-3.153617e+01
-3.097252e+01
-3.221075e+01
-3.153428e+01
-3.221425e+01
4.134113e+00
4.650863e+00
4.413350e+00
4.130714e+00
4.410995e+00
3.850830e+01
3.485934e+01
3.852675e+01
9.859163e+01
9.860946e+01
3.653644e+01
3.652280e+01
9.376155e+01
9.595495e+01
9.596721e+01
2.331869e+02
2.331756e+02
2.365491e+02
2.292905e+02
-3.465333e+01
-3.596819e+01
-3.598959e+01
-3.464580e+01
2.302399e+02
2.302294e+02
2.365538e+02
2.379115e+02
2.379285e+02
-3.754647e+01
-3.412974e+01
-3.717098e+01
-3.410203e+01
-3.715010e+01
4.174480e+01
-6.272492e+01
-6.346732e+01
4.186641e+01
-6.346602e+01
-6.437801e+01
-6.438156e+01
4.203649e+01
4.203304e+01
4.186909e+01
-6.472991e+01
-6.462197e+01
-6.472557e+01
-6.484674e+01
-6.461791e+01
1.345768e+02
1.324057e+02
1.306258e+02
1.345787e+02
1.324050e+02
-8.799018e+01
-8.884380e+01
-8.730382e+01
-8.799008e+01
-8.884637e+01
9.504472e+01
9.711202e+01
9.710893e+01
9.597498e+01
9.597222e+01
-2.161828e+01
-2.137694e+01
-2.088676e+01
-2.045637e+01
-2.027308e+01
-2.045412e+01
-2.088469e+01
-2.137848e+01
-2.162191e+01
5.011429e+01
4.771867e+01
1.470163e+02
1.399350e+02
1.470473e+02
1.431673e+02
5.293521e+01
5.296991e+01
1.431461e+02
5.009025e+01
7.304942e+01
7.304475e+01
7.247847e+01
-1.055120e+02
-1.079484e+02
-1.064280e+02
-1.064249e+02
-1.079549e+02
7.294366e+01
7.268854e+01
7.294313e+01
7.269177e+01
-1.055151e+02
-1.051849e+02
-1.074830e+02
-1.074808e+02
7.241496e+01
7.247557e+01
1.834114e+02
-8.965885e+01
-8.956210e+01
-8.980773e+01
-8.966272e+01
1.834123e+02
1.815442e+02
-8.952762e+01
-8.956054e+01
-8.952414e+01
-8.976842e+01
1.855520e+02
1.809369e+02
1.864335e+02
1.855528e+02
1.864330e+02
-8.976406e+01
1.815448e+02
-3.323815e+01
-3.213400e+01
-3.324119e+01
-3.213264e+01
-3.121548e+01
-9.211897e+01
-8.878546e+01
-9.029384e+01
-9.212333e+01
2.080081e+01
2.018868e+01
2.132194e+01
2.018698e+01
2.080018e+01
-9.029571e+01
-1.132942e+02
-1.134528e+02
-1.132910e+02
2.359285e+02
2.320833e+02
2.359245e+02
-1.134492e+02
-1.136205e+02
2.320800e+02
2.289316e+02
-1.589530e+02
-1.589624e+02
-1.567513e+02
1.091267e+02
1.101814e+02
1.101756e+02
1.095855e+02
-1.549619e+02
-1.567568e+02
1.095888e+02
5.818228e+01
5.239772e+01
5.502517e+01
5.822633e+01
1.647541e+02
1.568458e+02
1.604303e+02
1.647910e+02
1.604558e+02
5.505469e+01
-4.750564e+01
-4.701481e+01
-4.592460e+01
-4.497108e+01
-4.496980e+01
-4.701533e+01
-4.750421e+01
-4.461461e+01
-4.592629e+01
-1.845072e+02
-1.845224e+02
2.056371e+02
2.011429e+02
2.056209e+02
2.031664e+02
-1.827600e+02
-1.813350e+02
-1.827506e+02
2.031558e+02
-1.317152e+02
-1.316739e+02
-1.320262e+02
-1.318464e+02
-1.316699e+02
2.741645e+02
2.660732e+02
2.697148e+02
2.741571e+02
-1.317175e+02
-1.318425e+02
-1.319782e+02
2.728812e+02
2.728825e+02
2.697088e+02
2.669505e+02
2.669459e+02
-1.319737e+02
-2.123143e+02
-2.102520e+02
-2.084555e+02
1.485351e+02
1.490551e+02
1.496702e+02
-2.078562e+02
-2.131765e+02
-2.123185e+02
-2.131907e+02
1.483832e+02
1.485410e+02
1.499215e+02
1.496679e+02
1.499127e+02
1.490593e+02
-2.102426e+02
-2.084456e+02
-6.249081e+01
-6.042870e+01
-5.872629e+01
-6.043357e+01
-6.248468e+01
-1.439830e+02
2.945461e+02
2.945546e+02
-1.438051e+02
-1.441754e+02
-1.437999e+02
-1.439874e+02
2.994518e+02