# vtk DataFile Version 3.0
Unstructured Grid Example
ASCII
DATASET UNSTRUCTURED_GRID
POINTS 1641 float
-9.500000e-01	 0	 0
-9.500000e-01	 0	 3.750000e-01
-9.500000e-01	 0	 1.125000e+00
-9.500000e-01	 0	 1.500000e+00
-9.500000e-01	 0	 1.875000e+00
-9.500000e-01	 0	 2.250000e+00
-9.500000e-01	 0	 2.625000e+00
-9.500000e-01	 0	 3
-9.500000e-01	 0	 7.500000e-01
-9.341401e-01	 -1.728649e-01	 1.500000e+00
-9.341401e-01	 -1.728649e-01	 0
-9.341401e-01	 -1.728649e-01	 3.000000e+00
-9.341401e-01	 1.728649e-01	 2.250000e+00
-9.341401e-01	 1.728649e-01	 0
-9.341401e-01	 1.728649e-01	 1.500000e+00
-9.341401e-01	 1.728649e-01	 3.000000e+00
-9.341401e-01	 -1.728649e-01	 7.500000e-01
-9.341401e-01	 -1.728649e-01	 2.250000e+00
-9.341401e-01	 1.728649e-01	 7.500000e-01
-8.832989e-01	 -3.496900e-01	 1.125000e+00
-8.832989e-01	 -3.496900e-01	 1.875000e+00
-8.832989e-01	 -3.496900e-01	 2.625000e+00
-8.832989e-01	 -3.496900e-01	 2.250000e+00
-8.832989e-01	 3.496900e-01	 1.125000e+00
-8.832989e-01	 -3.496900e-01	 0
-8.832989e-01	 -3.496900e-01	 3.000000e+00
-8.832989e-01	 -3.496900e-01	 3.750000e-01
-8.832989e-01	 -3.496900e-01	 7.500000e-01
-8.832989e-01	 3.496900e-01	 3.750000e-01
-8.832989e-01	 3.496900e-01	 7.500000e-01
-8.832989e-01	 3.496900e-01	 2.250000e+00
-8.832989e-01	 3.496900e-01	 2.625000e+00
-8.832989e-01	 3.496900e-01	 0
-8.832989e-01	 3.496900e-01	 1.875000e+00
-8.832989e-01	 3.496900e-01	 3.000000e+00
-8.832989e-01	 -3.496900e-01	 1.500000e+00
-8.832989e-01	 3.496900e-01	 1.500000e+00
-8.787500e-01	 0	 2.250000e+00
-8.787500e-01	 0	 0
-8.787500e-01	 0	 1.500000e+00
-8.787500e-01	 0	 3
-8.787500e-01	 0	 7.500000e-01
-8.149622e-01	 -3.223238e-01	 7.500000e-01
-8.149622e-01	 3.223238e-01	 7.500000e-01
-8.149622e-01	 -3.223238e-01	 2.250000e+00
-8.149622e-01	 3.223238e-01	 2.250000e+00
-8.149622e-01	 -3.223238e-01	 0
-8.149622e-01	 -3.223238e-01	 1.500000e+00
-8.149622e-01	 -3.223238e-01	 3
-8.149622e-01	 3.223238e-01	 1.500000e+00
-8.149622e-01	 3.223238e-01	 0
-8.149622e-01	 3.223238e-01	 3
-8.075000e-01	 0	 7.500000e-01
-8.075000e-01	 0	 2.250000e+00
-8.075000e-01	 0	 3.750000e-01
-8.075000e-01	 0	 1.875000e+00
-8.075000e-01	 0	 2.625000e+00
-8.075000e-01	 0	 0
-8.075000e-01	 0	 1.125000e+00
-8.075000e-01	 0	 1.500000e+00
-8.075000e-01	 0	 3
-7.951457e-01	 -5.198493e-01	 7.500000e-01
-7.951457e-01	 5.198493e-01	 7.500000e-01
-7.951457e-01	 -5.198493e-01	 0
-7.951457e-01	 -5.198493e-01	 1.500000e+00
-7.951457e-01	 -5.198493e-01	 2.250000e+00
-7.951457e-01	 -5.198493e-01	 3
-7.951457e-01	 5.198493e-01	 0
-7.951457e-01	 5.198493e-01	 1.500000e+00
-7.951457e-01	 5.198493e-01	 2.250000e+00
-7.951457e-01	 5.198493e-01	 3
-7.894916e-01	 -1.451644e-01	 7.500000e-01
-7.894916e-01	 1.451644e-01	 7.500000e-01
-7.894916e-01	 1.451644e-01	 0
-7.894916e-01	 1.451644e-01	 3
-7.894916e-01	 -1.451644e-01	 0
-7.894916e-01	 -1.451644e-01	 1.500000e+00
-7.894916e-01	 -1.451644e-01	 2.250000e+00
-7.894916e-01	 -1.451644e-01	 3
-7.894916e-01	 1.451644e-01	 1.500000e+00
-7.894916e-01	 1.451644e-01	 2.250000e+00
-7.430021e-01	 -2.929055e-01	 1.500000e+00
-7.430021e-01	 2.929055e-01	 1.500000e+00
-7.430021e-01	 -2.929055e-01	 2.250000e+00
-7.430021e-01	 -2.929055e-01	 0
-7.430021e-01	 -2.929055e-01	 3.000000e+00
-7.430021e-01	 2.929055e-01	 3.750000e-01
-7.430021e-01	 -2.929055e-01	 3.750000e-01
-7.430021e-01	 -2.929055e-01	 1.125000e+00
-7.430021e-01	 -2.929055e-01	 1.875000e+00
-7.430021e-01	 -2.929055e-01	 2.625000e+00
-7.430021e-01	 2.929055e-01	 1.125000e+00
-7.430021e-01	 2.929055e-01	 0
-7.430021e-01	 2.929055e-01	 1.875000e+00
-7.430021e-01	 2.929055e-01	 2.250000e+00
-7.430021e-01	 2.929055e-01	 2.625000e+00
-7.430021e-01	 2.929055e-01	 3.000000e+00
-7.430021e-01	 2.929055e-01	 7.500000e-01
-7.430021e-01	 -2.929055e-01	 7.500000e-01
-7.362500e-01	 0	 0
-7.362500e-01	 0	 7.500000e-01
-7.362500e-01	 0	 1.500000e+00
-7.362500e-01	 0	 2.250000e+00
-7.362500e-01	 0	 3
-6.717514e-01	 -6.717514e-01	 2.625000e+00
-6.717514e-01	 6.717514e-01	 2.625000e+00
-6.717514e-01	 -6.717514e-01	 0
-6.717514e-01	 -6.717514e-01	 3.750000e-01
-6.717514e-01	 -6.717514e-01	 7.500000e-01
-6.717514e-01	 -6.717514e-01	 1.125000e+00
-6.717514e-01	 -6.717514e-01	 1.875000e+00
-6.717514e-01	 -6.717514e-01	 3.000000e+00
-6.717514e-01	 -6.717514e-01	 2.250000e+00
-6.717514e-01	 6.717514e-01	 1.500000e+00
-6.717514e-01	 6.717514e-01	 0
-6.717514e-01	 6.717514e-01	 3.750000e-01
-6.717514e-01	 6.717514e-01	 7.500000e-01
-6.717514e-01	 6.717514e-01	 1.125000e+00
-6.717514e-01	 6.717514e-01	 1.875000e+00
-6.717514e-01	 6.717514e-01	 3.000000e+00
-6.717514e-01	 -6.717514e-01	 1.500000e+00
-6.717514e-01	 6.717514e-01	 2.250000e+00
-6.682985e-01	 -2.618048e-01	 0
-6.682985e-01	 -2.618048e-01	 1.500000e+00
-6.682985e-01	 -2.618048e-01	 3
-6.682985e-01	 -2.618048e-01	 7.500000e-01
-6.682985e-01	 -2.618048e-01	 2.250000e+00
-6.682985e-01	 2.618048e-01	 7.500000e-01
-6.682985e-01	 2.618048e-01	 2.250000e+00
-6.682985e-01	 2.618048e-01	 0
-6.682985e-01	 2.618048e-01	 1.500000e+00
-6.682985e-01	 2.618048e-01	 3
-6.665713e-01	 -4.348738e-01	 2.250000e+00
-6.665713e-01	 -4.348738e-01	 7.500000e-01
-6.665713e-01	 4.348738e-01	 7.500000e-01
-6.665713e-01	 4.348738e-01	 2.250000e+00
-6.665713e-01	 -4.348738e-01	 0
-6.665713e-01	 -4.348738e-01	 3
-6.665713e-01	 4.348738e-01	 0
-6.665713e-01	 4.348738e-01	 1.500000e+00
-6.665713e-01	 4.348738e-01	 3
-6.665713e-01	 -4.348738e-01	 1.500000e+00
-6.650000e-01	 0	 7.500000e-01
-6.650000e-01	 0	 0
-6.650000e-01	 0	 3.750000e-01
-6.650000e-01	 0	 1.125000e+00
-6.650000e-01	 0	 1.500000e+00
-6.650000e-01	 0	 1.875000e+00
-6.650000e-01	 0	 2.625000e+00
-6.650000e-01	 0	 3
-6.650000e-01	 0	 2.250000e+00
-6.383743e-01	 -1.144482e-01	 0
-6.383743e-01	 -1.144482e-01	 3.000000e+00
-6.383743e-01	 -1.144482e-01	 7.500000e-01
-6.383743e-01	 -1.144482e-01	 1.500000e+00
-6.383743e-01	 -1.144482e-01	 2.250000e+00
-6.383743e-01	 1.144482e-01	 7.500000e-01
-6.383743e-01	 1.144482e-01	 1.500000e+00
-6.383743e-01	 1.144482e-01	 0
-6.383743e-01	 1.144482e-01	 2.250000e+00
-6.383743e-01	 1.144482e-01	 3.000000e+00
-6.189903e-01	 -6.189903e-01	 0
-6.189903e-01	 -6.189903e-01	 1.500000e+00
-6.189903e-01	 -6.189903e-01	 3.000000e+00
-6.189903e-01	 6.189903e-01	 2.250000e+00
-6.189903e-01	 6.189903e-01	 0
-6.189903e-01	 6.189903e-01	 1.500000e+00
-6.189903e-01	 6.189903e-01	 3.000000e+00
-6.189903e-01	 -6.189903e-01	 2.250000e+00
-6.189903e-01	 -6.189903e-01	 7.500000e-01
-6.189903e-01	 6.189903e-01	 7.500000e-01
-5.937500e-01	 0	 0
-5.937500e-01	 0	 7.500000e-01
-5.937500e-01	 0	 1.500000e+00
-5.937500e-01	 0	 2.250000e+00
-5.937500e-01	 0	 3
-5.917666e-01	 2.294176e-01	 1.875000e+00
-5.917666e-01	 2.294176e-01	 2.250000e+00
-5.917666e-01	 -2.294176e-01	 2.250000e+00
-5.917666e-01	 -2.294176e-01	 0
-5.917666e-01	 -2.294176e-01	 2.625000e+00
-5.917666e-01	 -2.294176e-01	 3
-5.917666e-01	 -2.294176e-01	 1.500000e+00
-5.917666e-01	 -2.294176e-01	 1.875000e+00
-5.917666e-01	 2.294176e-01	 0
-5.917666e-01	 2.294176e-01	 2.625000e+00
-5.917666e-01	 2.294176e-01	 3
-5.917666e-01	 2.294176e-01	 1.500000e+00
-5.917666e-01	 -2.294176e-01	 3.750000e-01
-5.917666e-01	 -2.294176e-01	 7.500000e-01
-5.917666e-01	 -2.294176e-01	 1.125000e+00
-5.917666e-01	 2.294176e-01	 7.500000e-01
-5.917666e-01	 2.294176e-01	 1.125000e+00
-5.917666e-01	 2.294176e-01	 3.750000e-01
-5.620800e-01	 5.620800e-01	 1.125000e+00
-5.620800e-01	 -5.620800e-01	 1.125000e+00
-5.620800e-01	 -5.620800e-01	 3.750000e-01
-5.620800e-01	 -5.620800e-01	 7.500000e-01
-5.620800e-01	 -5.620800e-01	 1.875000e+00
-5.620800e-01	 -5.620800e-01	 2.625000e+00
-5.620800e-01	 5.620800e-01	 3.750000e-01
-5.620800e-01	 5.620800e-01	 7.500000e-01
-5.620800e-01	 5.620800e-01	 1.875000e+00
-5.620800e-01	 -5.620800e-01	 0
-5.620800e-01	 -5.620800e-01	 1.500000e+00
-5.620800e-01	 -5.620800e-01	 2.250000e+00
-5.620800e-01	 -5.620800e-01	 3
-5.620800e-01	 5.620800e-01	 0
-5.620800e-01	 5.620800e-01	 1.500000e+00
-5.620800e-01	 5.620800e-01	 2.250000e+00
-5.620800e-01	 5.620800e-01	 3
-5.620800e-01	 5.620800e-01	 2.625000e+00
-5.250231e-01	 -3.396892e-01	 7.500000e-01
-5.250231e-01	 3.396892e-01	 1.500000e+00
-5.250231e-01	 3.396892e-01	 2.250000e+00
-5.250231e-01	 3.396892e-01	 7.500000e-01
-5.250231e-01	 -3.396892e-01	 2.250000e+00
-5.250231e-01	 -3.396892e-01	 0
-5.250231e-01	 -3.396892e-01	 1.500000e+00
-5.250231e-01	 -3.396892e-01	 3.000000e+00
-5.250231e-01	 3.396892e-01	 0
-5.250231e-01	 3.396892e-01	 3.000000e+00
-5.225000e-01	 0	 1.500000e+00
-5.225000e-01	 0	 2.250000e+00
-5.225000e-01	 0	 0
-5.225000e-01	 0	 3.750000e-01
-5.225000e-01	 0	 7.500000e-01
-5.225000e-01	 0	 1.125000e+00
-5.225000e-01	 0	 1.875000e+00
-5.225000e-01	 0	 2.625000e+00
-5.225000e-01	 0	 3
-5.198493e-01	 7.951457e-01	 7.500000e-01
-5.198493e-01	 -7.951457e-01	 7.500000e-01
-5.198493e-01	 -7.951457e-01	 0
-5.198493e-01	 -7.951457e-01	 1.500000e+00
-5.198493e-01	 -7.951457e-01	 2.250000e+00
-5.198493e-01	 -7.951457e-01	 3
-5.198493e-01	 7.951457e-01	 0
-5.198493e-01	 7.951457e-01	 1.500000e+00
-5.198493e-01	 7.951457e-01	 2.250000e+00
-5.198493e-01	 7.951457e-01	 3
-5.143216e-01	 -1.961513e-01	 2.250000e+00
-5.143216e-01	 1.961513e-01	 7.500000e-01
-5.143216e-01	 1.961513e-01	 1.500000e+00
-5.143216e-01	 -1.961513e-01	 7.500000e-01
-5.143216e-01	 -1.961513e-01	 0
-5.143216e-01	 -1.961513e-01	 3.000000e+00
-5.143216e-01	 -1.961513e-01	 1.500000e+00
-5.143216e-01	 1.961513e-01	 2.250000e+00
-5.143216e-01	 1.961513e-01	 0
-5.143216e-01	 1.961513e-01	 3.000000e+00
-5.020120e-01	 -5.020120e-01	 7.500000e-01
-5.020120e-01	 -5.020120e-01	 1.500000e+00
-5.020120e-01	 5.020120e-01	 7.500000e-01
-5.020120e-01	 5.020120e-01	 1.500000e+00
-5.020120e-01	 -5.020120e-01	 0
-5.020120e-01	 -5.020120e-01	 2.250000e+00
-5.020120e-01	 -5.020120e-01	 3.000000e+00
-5.020120e-01	 5.020120e-01	 0
-5.020120e-01	 5.020120e-01	 2.250000e+00
-5.020120e-01	 5.020120e-01	 3.000000e+00
-4.847636e-01	 8.158725e-02	 7.500000e-01
-4.847636e-01	 -8.158725e-02	 7.500000e-01
[...]
POINT_DATA 1641
SCALARS pres_adim float 1
LOOKUP_TABLE default
-1.663067e-03
-7.132485e-04
1.246280e-03
7.906454e-04
-1.982761e-05
-6.178067e-04
-2.419564e-04
1.509001e-04
6.983541e-04
-1.219253e+02
1.210243e+02
1.210258e+02
4.024400e-01
-1.210267e+02
1.219267e+02
-1.210263e+02
-4.022055e-01
-4.031336e-01
4.028410e-01
-1.666844e+02
-1.666836e+02
1.650490e+02
-7.718571e-01
1.666838e+02
2.296308e+02
2.296298e+02
1.650494e+02
-7.725869e-01
-1.650497e+02
7.713507e-01
7.725034e-01
-1.650502e+02
-2.296305e+02
1.666851e+02
-2.296320e+02
-2.313555e+02
2.313564e+02
-6.062124e-04
-1.617747e-03
7.489885e-04
1.834017e-04
7.037214e-04
-7.683766e-01
7.672001e-01
-7.676673e-01
7.683283e-01
2.268104e+02
-2.285209e+02
2.268095e+02
2.285217e+02
-2.268101e+02
-2.268116e+02
6.226109e-04
-5.138630e-04
-4.981450e-04
-1.485785e-04
-7.969046e-05
-1.299759e-03
9.379362e-04
5.120807e-04
2.767159e-04
-1.035186e+00
1.033104e+00
3.125200e+02
-3.148284e+02
-1.033556e+00
3.125174e+02
-3.125181e+02
3.148285e+02
1.034668e+00
-3.125198e+02
-3.925844e-01
3.932012e-01
-1.130455e+02
-1.130451e+02
1.130437e+02
-1.139128e+02
-3.933957e-01
1.130450e+02
1.139137e+02
3.928283e-01
-2.155120e+02
2.155126e+02
-7.530571e-01
2.138496e+02
2.138490e+02
-1.538369e+02
1.538367e+02
-1.554216e+02
-1.554210e+02
1.538365e+02
1.554211e+02
-2.138493e+02
1.554221e+02
7.535995e-01
-1.538373e+02
-2.138505e+02
7.527154e-01
-7.535783e-01
-9.217243e-04
5.593305e-04
2.207144e-04
-4.174158e-04
4.230244e-04
2.411598e+02
-2.411595e+02
3.347064e+02
2.411600e+02
-1.129554e+00
-2.435496e+02
-2.435495e+02
3.347059e+02
-1.129341e+00
3.372261e+02
-3.347060e+02
-2.411599e+02
1.129082e+00
2.435492e+02
2.435487e+02
-3.347054e+02
-3.372267e+02
1.128871e+00
1.951436e+02
-1.967216e+02
1.951433e+02
-7.257425e-01
-7.254128e-01
7.252593e-01
7.258575e-01
-1.951433e+02
1.967219e+02
-1.951443e+02
-1.010540e+00
-1.011803e+00
1.010278e+00
1.011516e+00
2.912839e+02
2.912819e+02
-2.912824e+02
2.935130e+02
-2.912839e+02
-2.935128e+02
4.800400e-04
-5.220720e-04
-6.213575e-05
3.078651e-04
-7.265814e-05
-4.002425e-04
2.304110e-04
5.470951e-04
-3.176093e-04
9.001365e+01
9.001458e+01
-3.529390e-01
-9.077106e+01
-3.534841e-01
3.535192e-01
9.077079e+01
-9.001411e+01
3.531564e-01
-9.001386e+01
3.309318e+02
-3.334327e+02
3.309313e+02
1.123333e+00
-3.309314e+02
3.334322e+02
-3.309308e+02
-1.123755e+00
-1.123954e+00
1.123546e+00
-1.343627e-04
3.749200e-04
-3.623113e-04
-2.299911e-04
6.486718e-04
1.221646e+02
6.771456e-01
-6.768170e-01
1.680066e+02
1.207650e+02
1.680065e+02
-1.694518e+02
-1.221644e+02
-1.680062e+02
-1.207650e+02
-1.680069e+02
1.694518e+02
1.207649e+02
-6.769894e-01
-1.221645e+02
6.768616e-01
1.221643e+02
-1.207647e+02
2.271207e+02
-2.271208e+02
2.248001e+02
-1.104172e+00
-2.271206e+02
2.247999e+02
-2.248000e+02
1.103927e+00
2.271204e+02
3.118398e+02
-3.142729e+02
-1.103999e+00
3.118393e+02
-3.118395e+02
3.142728e+02
1.103791e+00
-3.118392e+02
-2.247998e+02
-9.090255e-01
2.290760e+02
9.091274e-01
9.086666e-01
-9.084558e-01
2.271407e+02
-2.290757e+02
2.271400e+02
-2.271401e+02
-2.271411e+02
-4.998289e-04
-1.831452e-04
8.262368e-05
1.948618e-04
2.857920e-04
-1.558584e-04
-5.001606e-04
3.302454e-04
6.435254e-04
1.035173e+00
-1.033849e+00
3.125191e+02
-3.148295e+02
-1.035349e+00
3.125212e+02
-3.125203e+02
3.148283e+02
1.033413e+00
-3.125179e+02
-6.021263e-01
6.023087e-01
1.387311e+02
-6.021824e-01
1.374706e+02
1.374708e+02
-1.387315e+02
6.023034e-01
-1.374702e+02
-1.374706e+02
-1.064847e+00
-2.864296e+02
1.064853e+00
2.864299e+02
2.841192e+02
-1.064686e+00
2.841188e+02
-2.841192e+02
1.064762e+00
-2.841191e+02
2.655127e-01
-2.651480e-01
5.804437e+01
-5.859307e+01
5.804486e+01
-2.654190e-01
-5.804398e+01
5.859210e+01
2.652019e-01
-5.804387e+01
-5.635573e-04
-1.455374e-04
2.265918e-04
1.570456e-04
5.474285e-04
-1.767392e+02
1.767399e+02
2.428032e+02
1.746928e+02
2.428029e+02
1.746929e+02
-2.449129e+02
1.767398e+02
-2.428034e+02
-1.746931e+02
-2.428036e+02
-1.767390e+02
-9.913798e-01
9.916970e-01
-1.746930e+02
2.449136e+02
9.917869e-01
-9.915419e-01
-7.580255e+01
-1.055328e+02
-7.478967e+01
-7.478986e+01
1.055323e+02
7.580232e+01
-4.993243e-01
7.479009e+01
7.478990e+01
-4.993658e-01
-1.045059e+02
4.995195e-01
4.993924e-01
-1.045062e+02
7.580227e+01
-7.580257e+01
1.045063e+02
1.045064e+02
1.010548e+00
-1.011865e+00
-2.912840e+02
-2.912823e+02
-1.010716e+00
2.912829e+02
-2.935132e+02
2.912845e+02
2.935127e+02
1.011880e+00
2.069161e-04
1.103144e-04
5.121319e-05
-2.704970e-04
-5.045629e-04
-3.988104e-04
-1.424393e-04
1.555373e-04
4.057590e-04
-6.624501e-01
-6.622376e-01
1.383645e+02
1.383644e+02
-1.397207e+02
-1.383644e+02
1.397209e+02
6.625268e-01
-1.383648e+02
6.625978e-01
-8.786352e-01
1.966606e+02
-8.788083e-01
-1.984920e+02
1.966603e+02
-1.966610e+02
8.791660e-01
1.984930e+02
-1.966612e+02
8.790860e-01
-3.766180e-01
7.243359e+01
7.243377e+01
-7.243332e+01
-7.243349e+01
3.765370e-01
-3.766440e-01
3.767009e-01
7.319492e+01
-7.319544e+01
-1.666849e+02
2.296314e+02
-1.666862e+02
2.296333e+02
-2.313574e+02
-2.296317e+02
-2.296309e+02
1.666848e+02
1.666840e+02
-1.650496e+02
1.650501e+02
-7.719901e-01
-7.730833e-01
1.650509e+02
2.313560e+02
-1.650499e+02
7.719994e-01
7.727679e-01
-9.084534e-01
-2.290746e+02
-9.088627e-01
9.087837e-01
9.093026e-01
2.271396e+02
2.271399e+02
-2.271406e+02
2.290754e+02
-2.271400e+02
-1.376402e-01
-2.669139e+01
2.641488e+01
-1.377141e-01
2.641506e+01
-2.641456e+01
2.669060e+01
1.374555e-01
-2.641453e+01
1.375924e-01
-7.677730e-01
-7.688518e-01
7.685677e-01
7.678276e-01
2.268109e+02
2.268128e+02
-2.268113e+02
2.285213e+02
-2.268104e+02
-2.285226e+02
-7.200067e-01
7.203167e-01
1.068941e+02
-1.068934e+02
1.474761e+02
1.054370e+02
-1.489490e+02
-1.068933e+02
1.054370e+02
1.474760e+02
-1.474766e+02
-1.054373e+02
1.489499e+02
1.068941e+02
-1.054374e+02
-1.474768e+02
-7.198371e-01
7.202233e-01
-2.155128e+02
1.538371e+02
-1.538369e+02
7.532482e-01
2.155120e+02
2.138497e+02
-1.554225e+02
-7.539306e-01
1.538376e+02
2.138511e+02
1.554217e+02
1.554212e+02
-2.138501e+02
-2.138495e+02
-1.554215e+02
-7.530864e-01
7.537900e-01
-1.538367e+02
3.177980e+01
4.501486e+01
-3.227477e+01
-4.550941e+01
-3.227476e+01
-2.476024e-01
3.177994e+01
4.501501e+01
-4.501472e+01
2.474998e-01
2.474115e-01
-3.177998e+01
-4.501481e+01
3.227447e+01
4.550898e+01
-2.476412e-01
-3.177991e+01
3.227441e+01
1.951432e+02
-1.967213e+02
1.951440e+02
-1.951437e+02
1.967211e+02
-1.951433e+02
-7.253332e-01
-7.259364e-01
7.259874e-01
7.256470e-01
1.000414e+02
-5.336653e-01
-1.011153e+02
1.000413e+02
-1.000417e+02
5.337888e-01
1.011159e+02
-1.000420e+02
-5.335132e-01
5.337165e-01
-6.621979e-01
6.626478e-01
6.625730e-01
1.383634e+02
-1.397192e+02
-6.621622e-01
1.383632e+02
-1.383642e+02
-1.383643e+02
1.397204e+02
1.882715e+01
-1.882757e+01
-5.832465e+01
1.860860e+01
1.860873e+01
5.832462e+01
5.769129e+01
-3.181493e-01
5.769140e+01
-3.182443e-01
-1.104697e-01
-1.104892e-01
-1.860851e+01
1.102040e-01
-1.860850e+01
1.101608e-01
3.180991e-01
-5.769136e+01
3.180299e-01
-5.769150e+01
6.770779e-01
-6.769960e-01
-1.694505e+02
1.207643e+02
-1.207645e+02
1.680056e+02
1.207643e+02
1.680058e+02
6.772278e-01
-1.680062e+02
-1.207644e+02
-1.680060e+02
-1.221636e+02
-6.766291e-01
-1.221633e+02
1.221640e+02
1.694509e+02
1.221639e+02
6.023714e-01
-1.387293e+02
1.374692e+02
1.374690e+02
-1.374698e+02
-1.374697e+02
-6.018743e-01
-6.020119e-01
1.387301e+02
6.023708e-01
-3.426994e-01
3.425905e-01
4.297688e+01
-1.476004e-04
-1.822220e-04
-4.297723e+01
6.113271e+01
-4.366042e+01
-6.181426e+01
-4.366033e+01
-3.425821e-01
4.297702e+01
6.113274e+01
-8.450089e-05
-1.534243e-04
1.808931e-05
-1.551866e-04
1.111694e-04
-1.808851e-04
-6.113291e+01
4.366057e+01
6.181455e+01
4.366058e+01
3.425513e-01
-4.297732e+01
-6.113307e+01
-1.622022e-04
1.219264e+02
1.210272e+02
-1.219276e+02
1.210271e+02
-1.210255e+02
-1.210269e+02
-4.026499e-01
-4.031244e-01
4.023049e-01
4.032910e-01
-7.580094e+01
7.580170e+01
-1.055306e+02
-7.580085e+01
7.580180e+01
4.995037e-01
1.055314e+02
7.478876e+01
1.045048e+02
-4.990665e-01
-4.991185e-01
1.045045e+02
-1.045054e+02
-1.045054e+02
-7.478926e+01
7.478898e+01
-7.478928e+01
4.994657e-01
-3.933085e-01
1.130456e+02
1.130454e+02
3.927047e-01
-1.139140e+02
-3.929421e-01
-1.130443e+02
1.139132e+02
3.935352e-01
-1.130454e+02
-2.065517e-01
2.062927e-01
3.505325e+01
-5.832395e+01
5.769082e+01
-3.180619e-01
5.769077e+01
-2.064800e-01
3.464549e+01
-3.505315e+01
3.464559e+01
1.275508e+01
-1.289587e+01
-7.171012e-02
1.275520e+01
-7.173641e-02
7.134298e-02
-1.275508e+01
-1.275503e+01
7.134310e-02
-3.464558e+01
2.062725e-01
-3.464565e+01
-5.769109e+01
3.181092e-01
-5.769123e+01
5.832443e+01
-3.181599e-01
1.289576e+01
3.181175e-01
-3.763884e-01
-7.319357e+01
7.243239e+01
7.243207e+01
-3.764213e-01
7.319428e+01
3.766295e-01
-7.243275e+01
-7.243285e+01
3.766852e-01
9.001355e+01
-3.530370e-01
9.001303e+01
-9.001304e+01
-9.001359e+01
9.076982e+01
3.535569e-01
3.530499e-01
-3.532110e-01
-9.076997e+01
1.611482e+01
-3.227393e+01
-4.550822e+01
1.124805e+01
1.124819e+01
-9.644864e-02
-1.124837e+01
-3.177953e+01
4.501407e+01
-2.474949e-01
-2.474520e-01
3.177929e+01
4.501395e+01
-3.227384e+01
1.592561e+01
1.592575e+01
-9.647555e-02
-1.143918e+01
-1.611478e+01
-1.592560e+01
9.612486e-02
1.143908e+01
9.611595e-02
-1.124837e+01
-1.592557e+01
2.475144e-01
-4.501424e+01
3.227416e+01
4.550862e+01
3.227426e+01
2.475309e-01
-3.177957e+01
-4.501433e+01
3.177931e+01
-1.143914e+01
1.143906e+01
-2.650472e-01
2.651655e-01
5.804312e+01
-5.859090e+01
-2.650228e-01
5.804255e+01
-5.804308e+01
5.859111e+01
-5.804323e+01
2.653944e-01
-1.375054e-01
-1.103763e-01
2.467353e-02
1.102767e-01
2.669011e+01
2.641395e+01
-2.668999e+01
-1.375038e-01
2.641372e+01
-1.882686e+01
1.860813e+01
1.860813e+01
-1.103984e-01
-7.168640e-02
3.215521e+00
-2.504211e-02
3.215675e+00
-3.264148e+00
-2.504676e-02
-3.215423e+00
3.264213e+00
2.466121e-02
-3.215331e+00
-1.275485e+01
-1.275484e+01
1.289575e+01
7.141780e-02
1.102881e-01
-1.860806e+01
-1.860810e+01
1.882698e+01
-2.641390e+01
1.375956e-01
-2.641397e+01
1.375327e-01
1.275491e+01
-1.289564e+01
1.275504e+01
-7.170647e-02
7.142741e-02
1.769077e-04
2.019951e-04
3.581609e-05
2.491162e-05
-1.439153e-04
-1.512215e-04
1.419000e-03
8.980061e-04
-1.578580e-03
-1.209039e-03
-3.279494e-05
7.972542e-04
4.803580e-04
-7.826725e-05
-6.025982e-04
7.983719e-04
1.374444e-03
-1.133667e-03
-1.495710e-04
-5.846001e-04
-4.403613e-04
6.883499e-04
6.281410e-04
1.422609e-04
2.135770e-04
9.795794e-04
-1.073607e-03
-7.565988e-04
-3.602225e-04
5.554457e-04
-2.692514e-04
-3.058302e-04
5.911874e-04
-6.419228e-04
-9.069590e-05
1.103442e-04
6.563380e-05
-4.189706e-05
1.693272e-04
5.548367e-04
-3.450903e-04
-9.283025e-04
4.946451e-04
-3.278435e-04
8.175816e-05
5.966334e-04
3.729462e-04
-1.162249e-03
7.591020e-04
2.889483e-04
-5.085308e-04
-3.092039e-04
1.583032e-04
6.035356e-04
7.897081e-04
-6.667137e-04
-1.194929e-03
8.184094e-04
1.770774e-04
-6.345931e-04
1.839875e-04
-1.104365e-03
-5.731276e-04
-3.565380e-04
1.177198e-04
5.077956e-04
6.655140e-04
5.462412e-04
7.842991e-05
-5.292230e-04
-8.574194e-04
8.936156e-05
2.207635e-04
-1.525091e-05
-1.693574e-05
7.482058e-05
-1.649407e-04
-1.777607e-04
-9.820537e-05
-3.697020e-05
3.936808e-04
-6.227556e-05
4.185234e-04
-5.281837e-05
-1.369212e-04
9.168993e-04
5.639381e-04
-1.199717e-04
-8.030089e-04
-1.037446e-03
-6.737587e-04
-3.474568e-05
6.073200e-04
8.985885e-04
1.070125e-03
-2.030126e-04
1.026179e-03
-3.878134e-05
-1.304162e-03
1.138463e-03
6.674949e-04
-3.150486e-04
-1.130272e-03
-8.845214e-04
7.244296e-04
9.458322e-04
-1.335808e-03
-8.657747e-06
1.166657e-03
-4.058636e-04
-1.204523e-03
3.172993e-05
7.850229e-04
1.443342e-04
1.128708e-03
5.277518e-04
-9.749054e-04
-7.732868e-04
-3.676102e-04
3.924649e-04
3.448347e-04
-5.285375e-04
1.077762e-03
-6.210137e-04
-2.796702e-04
2.628923e-04
-1.093857e-04
1.029857e-03
-5.855164e-04
2.120673e-04
-5.601400e-04
3.183504e-04
5.935230e-04
-1.764025e-04
-7.051470e-04
3.782964e-04
-7.960702e-04
1.012292e-03
6.120840e-04
-9.582379e-04
4.946460e-04
-7.876841e-04
9.981889e-04
2.207925e-04
-4.021790e-04
7.036255e-04
1.077594e-03
5.033977e-04
-4.665490e-04
-1.003275e-03
-2.533108e-04
-1.837080e-04
-7.317682e-05
1.177882e-04
-1.442097e-04
-1.505018e-04
-1.051817e-04
7.135308e-02
3.264244e+00
1.275538e+01
-7.156225e-02
-1.289570e+01
1.275543e+01
-1.275508e+01
1.289570e+01
-1.275489e+01
-3.264028e+00
1.376081e-01
-2.641488e+01
2.669095e+01
1.375199e-01
-2.641492e+01
-1.860863e+01
-1.860852e+01
-3.215466e+00
2.468571e-02
2.466840e-02
-3.215304e+00
3.215697e+00
-2.495310e-02
3.215795e+00
-2.493243e-02
-7.157743e-02
-1.103433e-01
-1.103577e-01
1.860902e+01
1.860906e+01
2.641538e+01
-2.669162e+01
-1.376520e-01
2.641544e+01
-1.376580e-01
1.101690e-01
1.102123e-01
7.133405e-02
-1.882754e+01
1.882723e+01
2.653829e-01
-5.804422e+01
5.859235e+01
-5.804456e+01
5.804500e+01
-5.859360e+01
-2.654825e-01
5.804514e+01
2.654436e-01
-2.655406e-01
-3.177974e+01
1.143898e+01
-9.629648e-02
-1.611453e+01
3.178011e+01
-4.501458e+01
2.474559e-01
3.227418e+01
4.550858e+01
3.227409e+01
2.473438e-01
-3.177968e+01
-4.501443e+01
9.612189e-02
-1.592557e+01
1.143901e+01
1.611471e+01
9.610986e-02
-1.124822e+01
-1.592539e+01
1.592586e+01
-9.628540e-02
1.124832e+01
1.592592e+01
1.124834e+01
-2.475207e-01
-3.227472e+01
4.501513e+01
-3.227474e+01
-4.550933e+01
-2.475777e-01
3.178013e+01
4.501524e+01
-1.124832e+01
-1.143894e+01
-1.143895e+01
-3.536580e-01
-9.077152e+01
3.532948e-01
9.077052e+01
3.536138e-01
-9.001376e+01
-9.001445e+01
9.001477e+01
-3.535037e-01
9.001469e+01
3.764219e-01
-7.243299e+01
-7.243283e+01
3.766081e-01
7.319412e+01
-3.766386e-01
7.243372e+01
7.243391e+01
-7.319545e+01
-3.767298e-01
-3.464535e+01
-3.464516e+01
3.179882e-01
7.145160e-02
-1.289537e+01
-7.151127e-02
-3.180483e-01
5.832369e+01
-5.769084e+01
3.179028e-01
-5.769059e+01
2.062382e-01
3.505281e+01
2.062238e-01
7.144407e-02
1.275515e+01
1.275518e+01
-7.151766e-02
3.464572e+01
-2.063137e-01
-2.063354e-01
3.464572e+01
-3.505278e+01
5.769141e+01
-3.181138e-01
5.769147e+01
-5.832432e+01
-1.275491e+01
1.289580e+01
-1.275480e+01
-1.130443e+02
1.139128e+02
3.936546e-01
-1.130453e+02
-1.139130e+02
-3.931803e-01
3.928137e-01
1.130455e+02
1.130450e+02
-3.934464e-01
-7.478926e+01
4.994577e-01
7.478990e+01
-7.478925e+01
-1.045055e+02
-1.045053e+02
1.045062e+02
-4.994299e-01
-4.996250e-01
1.045066e+02
7.479007e+01
1.055312e+02
4.991953e-01
7.580140e+01
-7.580282e+01
-1.055329e+02
7.580161e+01
-7.580266e+01
4.023559e-01
4.034503e-01
-4.031025e-01
-4.027796e-01
-1.210251e+02
-1.210264e+02
1.210265e+02
-1.219253e+02
1.210257e+02
1.219255e+02
6.675334e-05
-2.804327e-05
7.618917e-05
-6.113233e+01
4.365985e+01
6.181354e+01
4.365976e+01
3.424272e-01
-4.297666e+01
-6.113209e+01
9.343979e-06
2.406740e-04
2.328220e-04
6.113275e+01
-4.366000e+01
-6.181379e+01
-4.366005e+01
-3.425121e-01
4.297700e+01
6.113272e+01
-4.297680e+01
-1.644038e-05
3.279737e-04
4.651844e-05
4.297703e+01
3.424571e-01
-3.424727e-01
6.020451e-01
1.387299e+02
-6.025636e-01
-6.022627e-01
-1.374698e+02
-1.374695e+02
1.374704e+02
1.374710e+02
-1.387316e+02
6.023405e-01
1.694508e+02
1.221636e+02
1.221639e+02
-6.769086e-01
-1.221645e+02
-1.221650e+02
-1.680061e+02
-1.207643e+02
-1.680057e+02
6.771216e-01
1.680063e+02
1.207651e+02
1.680071e+02
-1.207644e+02
1.207648e+02
-1.694520e+02
-6.774037e-01
6.767812e-01
1.103207e-01
-1.102156e-01
-5.769062e+01
3.180417e-01
-5.769048e+01
3.180149e-01
-3.179452e-01
5.769083e+01
-3.179507e-01
5.769071e+01
5.832366e+01
-1.860834e+01
1.103853e-01
-1.860835e+01
1.860836e+01
1.860824e+01
-1.101705e-01
-5.832342e+01
1.882734e+01
-1.882654e+01
1.397186e+02
-1.383632e+02
-1.383627e+02
1.383639e+02
-1.397204e+02
-6.625876e-01
1.383642e+02
6.621163e-01
6.624177e-01
-6.623352e-01
5.334580e-01
-5.335867e-01
-1.000406e+02
5.335371e-01
1.011140e+02
-1.000403e+02
1.000411e+02
-5.335085e-01
-1.011148e+02
1.000410e+02
7.257985e-01
7.253954e-01
-7.253994e-01
-7.261059e-01
-1.951436e+02
1.967212e+02
-1.951431e+02
1.951434e+02
-1.967218e+02
1.951444e+02
2.474925e-01
3.227419e+01
-3.177952e+01
3.177939e+01
-2.473401e-01
-3.227353e+01
3.227415e+01
4.550855e+01
-4.501422e+01
2.475837e-01
-3.177949e+01
-4.501423e+01
4.501416e+01
-3.227356e+01
-4.550778e+01
-2.472967e-01
3.177929e+01
4.501394e+01
-1.538368e+02
7.535166e-01
-7.529278e-01
-1.554211e+02
-2.138500e+02
-2.138493e+02
1.554217e+02
1.554212e+02
2.138494e+02
-1.554220e+02
-7.538362e-01
1.538372e+02
2.138506e+02
2.155123e+02
7.530565e-01
-1.538370e+02
1.538369e+02
-2.155122e+02
7.198643e-01
-7.200411e-01
-1.474750e+02
-1.054362e+02
1.489474e+02
1.068921e+02
-1.054359e+02
-1.474746e+02
1.474754e+02
1.054365e+02
-1.489485e+02
-1.068931e+02
1.054365e+02
1.474754e+02
-1.068929e+02
1.068923e+02
7.199752e-01
-7.199350e-01
-2.285211e+02
-2.268112e+02
2.285218e+02
-2.268104e+02
2.268102e+02
2.268115e+02
7.676879e-01
7.682238e-01
-7.685583e-01
-7.674482e-01
1.376567e-01
2.669096e+01
-2.641451e+01
1.377685e-01
-2.641465e+01
2.641409e+01
-2.668970e+01
-1.373413e-01
2.641385e+01
-1.374093e-01
-2.271396e+02
2.290743e+02
-2.271386e+02
2.271395e+02
2.271404e+02
9.089675e-01
9.083105e-01
-2.290757e+02
-9.091207e-01
-9.085068e-01
7.724159e-01
7.718675e-01
-1.650500e+02
2.313565e+02
1.650497e+02
-7.716042e-01
-7.727382e-01
1.650500e+02
1.666849e+02
1.666843e+02
-1.650497e+02
-2.296317e+02
-2.296308e+02
-2.313557e+02
2.296307e+02
-1.666848e+02
2.296320e+02
-1.666837e+02
-7.319308e+01
7.319396e+01
3.765705e-01
-3.763727e-01
3.767106e-01
-7.243254e+01
-7.243261e+01
7.243221e+01
7.243190e+01
-3.763366e-01
8.786855e-01
-1.966592e+02
8.788004e-01
1.984903e+02
-1.966588e+02
1.966595e+02
-8.787753e-01
-1.984915e+02
1.966595e+02
-8.788854e-01
6.622885e-01
-1.383628e+02
1.397184e+02
6.624160e-01
-1.383627e+02
-1.397185e+02
1.383628e+02
1.383625e+02
-6.622293e-01
-6.622481e-01
-3.600889e-04
-2.359543e-04
1.606727e-04
5.595171e-04
7.729620e-04
6.642061e-04
2.430401e-04
-3.418489e-04
-5.707381e-04
1.011464e+00
2.935135e+02
2.912824e+02
-2.935132e+02
2.912839e+02
-1.010338e+00
-2.912840e+02
-2.912822e+02
-1.011409e+00
1.010244e+00
1.045045e+02
1.045041e+02
-7.580058e+01
7.580146e+01
-1.045050e+02
4.993170e-01
4.995675e-01
-1.045052e+02
7.478863e+01
-4.991785e-01
7.478845e+01
-4.991368e-01
7.580124e+01
1.055309e+02
-7.478900e+01
-7.478902e+01
-1.055301e+02
-7.580066e+01
-9.914813e-01
9.914887e-01
-1.746921e+02
2.449118e+02
9.913688e-01
-9.914864e-01
-1.767390e+02
-2.428021e+02
-1.746920e+02
-2.428018e+02
1.767383e+02
1.746923e+02
-2.449127e+02
2.428023e+02
1.746923e+02
2.428022e+02
1.767385e+02
-1.767390e+02
-5.539818e-04
1.893534e-04
-7.427778e-04
2.319478e-04
8.851347e-04
-5.804399e+01
5.859221e+01
2.655356e-01
-5.804415e+01
-2.651257e-01
5.804287e+01
-5.859060e+01
5.804267e+01
-2.650730e-01
2.654042e-01
-2.841185e+02
1.064538e+00
-2.841183e+02
2.841185e+02
-1.064545e+00
2.841183e+02
1.064690e+00
2.864293e+02
-1.064690e+00
-2.864297e+02
-1.374693e+02
-1.374696e+02
6.025008e-01
-1.387288e+02
1.374688e+02
1.374683e+02
-6.021138e-01
1.387296e+02
6.021243e-01
-6.020701e-01
-3.125207e+02
3.148301e+02
1.033192e+00
-3.125185e+02
3.125184e+02
-3.148290e+02
-1.034531e+00
3.125203e+02
-1.033242e+00
1.034709e+00
-7.208030e-04
-4.023677e-04
2.357760e-04
6.597811e-04
7.133527e-04
-4.638213e-04
-6.854575e-04
8.802423e-04
1.247453e-04
-2.271389e+02
-2.271396e+02
2.271394e+02
-2.290742e+02
2.271384e+02
-9.085447e-01
9.085458e-01
2.290740e+02
9.091097e-01
-9.089910e-01
-2.248001e+02
-3.118396e+02
3.142736e+02
1.103678e+00
-3.118395e+02
3.118395e+02
-3.142734e+02
-1.103567e+00
3.118392e+02
-2.248002e+02
1.103895e+00
2.271209e+02
2.248001e+02
2.248002e+02
-1.103886e+00
-2.271207e+02
-2.271209e+02
2.271211e+02
-1.207643e+02
6.768370e-01
1.221635e+02
-1.221634e+02
-6.770514e-01
1.207640e+02
1.694505e+02
-1.680058e+02
-1.207644e+02
-1.680064e+02
-1.694499e+02
-1.221631e+02
1.680055e+02
1.207637e+02
1.680049e+02
-6.769216e-01
6.773781e-01
1.221640e+02
-8.227852e-04
2.539883e-04
8.132939e-04
-1.270845e-05
-5.466921e-04
1.123582e+00
-1.123563e+00
-1.123092e+00
-3.309321e+02
3.334340e+02
-3.309319e+02