# vtk DataFile Version 3.0
Unstructured Grid Example
ASCII
DATASET UNSTRUCTURED_GRID
POINTS 1641 float
-9.500000e-01	 0	 0
-9.500000e-01	 0	 3.750000e-01
-9.500000e-01	 0	 1.125000e+00
-9.500000e-01	 0	 1.500000e+00
-9.500000e-01	 0	 1.875000e+00
-9.500000e-01	 0	 2.250000e+00
-9.500000e-01	 0	 2.625000e+00
-9.500000e-01	 0	 3
-9.500000e-01	 0	 7.500000e-01
-9.341401e-01	 -1.728649e-01	 1.500000e+00
-9.341401e-01	 -1.728649e-01	 0
-9.341401e-01	 -1.728649e-01	 3.000000e+00
-9.341401e-01	 1.728649e-01	 2.250000e+00
-9.341401e-01	 1.728649e-01	 0
-9.341401e-01	 1.728649e-01	 1.500000e+00
-9.341401e-01	 1.728649e-01	 3.000000e+00
-9.341401e-01	 -1.728649e-01	 7.500000e-01
-9.341401e-01	 -1.728649e-01	 2.250000e+00
-9.341401e-01	 1.728649e-01	 7.500000e-01
-8.832989e-01	 -3.496900e-01	 1.125000e+00
-8.832989e-01	 -3.496900e-01	 1.875000e+00
-8.832989e-01	 -3.496900e-01	 2.625000e+00
-8.832989e-01	 -3.496900e-01	 2.250000e+00
-8.832989e-01	 3.496900e-01	 1.125000e+00
-8.832989e-01	 -3.496900e-01	 0
-8.832989e-01	 -3.496900e-01	 3.000000e+00
-8.832989e-01	 -3.496900e-01	 3.750000e-01
-8.832989e-01	 -3.496900e-01	 7.500000e-01
-8.832989e-01	 3.496900e-01	 3.750000e-01
-8.832989e-01	 3.496900e-01	 7.500000e-01
-8.832989e-01	 3.496900e-01	 2.250000e+00
-8.832989e-01	 3.496900e-01	 2.625000e+00
-8.832989e-01	 3.496900e-01	 0
-8.832989e-01	 3.496900e-01	 1.875000e+00
-8.832989e-01	 3.496900e-01	 3.000000e+00
-8.832989e-01	 -3.496900e-01	 1.500000e+00
-8.832989e-01	 3.496900e-01	 1.500000e+00
-8.787500e-01	 0	 2.250000e+00
-8.787500e-01	 0	 0
-8.787500e-01	 0	 1.500000e+00
-8.787500e-01	 0	 3
-8.787500e-01	 0	 7.500000e-01
-8.149622e-01	 -3.223238e-01	 7.500000e-01
-8.149622e-01	 3.223238e-01	 7.500000e-01
-8.149622e-01	 -3.223238e-01	 2.250000e+00
-8.149622e-01	 3.223238e-01	 2.250000e+00
-8.149622e-01	 -3.223238e-01	 0
-8.149622e-01	 -3.223238e-01	 1.500000e+00
-8.149622e-01	 -3.223238e-01	 3
-8.149622e-01	 3.223238e-01	 1.500000e+00
-8.149622e-01	 3.223238e-01	 0
-8.149622e-01	 3.223238e-01	 3
-8.075000e-01	 0	 7.500000e-01
-8.075000e-01	 0	 2.250000e+00
-8.075000e-01	 0	 3.750000e-01
-8.075000e-01	 0	 1.875000e+00
-8.075000e-01	 0	 2.625000e+00
-8.075000e-01	 0	 0
-8.075000e-01	 0	 1.125000e+00
-8.075000e-01	 0	 1.500000e+00
-8.075000e-01	 0	 3
-7.951457e-01	 -5.198493e-01	 7.500000e-01
-7.951457e-01	 5.198493e-01	 7.500000e-01
-7.951457e-01	 -5.198493e-01	 0
-7.951457e-01	 -5.198493e-01	 1.500000e+00
-7.951457e-01	 -5.198493e-01	 2.250000e+00
-7.951457e-01	 -5.198493e-01	 3
-7.951457e-01	 5.198493e-01	 0
-7.951457e-01	 5.198493e-01	 1.500000e+00
-7.951457e-01	 5.198493e-01	 2.250000e+00
-7.951457e-01	 5.198493e-01	 3
-7.894916e-01	 -1.451644e-01	 7.500000e-01
-7.894916e-01	 1.451644e-01	 7.500000e-01
-7.894916e-01	 1.451644e-01	 0
-7.894916e-01	 1.451644e-01	 3
-7.894916e-01	 -1.451644e-01	 0
-7.894916e-01	 -1.451644e-01	 1.500000e+00
-7.894916e-01	 -1.451644e-01	 2.250000e+00
-7.894916e-01	 -1.451644e-01	 3
-7.894916e-01	 1.451644e-01	 1.500000e+00
-7.894916e-01	 1.451644e-01	 2.250000e+00
-7.430021e-01	 -2.929055e-01	 1.500000e+00
-7.430021e-01	 2.929055e-01	 1.500000e+00
-7.430021e-01	 -2.929055e-01	 2.250000e+00
-7.430021e-01	 -2.929055e-01	 0
-7.430021e-01	 -2.929055e-01	 3.000000e+00
-7.430021e-01	 2.929055e-01	 3.750000e-01
-7.430021e-01	 -2.929055e-01	 3.750000e-01
-7.430021e-01	 -2.929055e-01	 1.125000e+00
-7.430021e-01	 -2.929055e-01	 1.875000e+00
-7.430021e-01	 -2.929055e-01	 2.625000e+00
-7.430021e-01	 2.929055e-01	 1.125000e+00
-7.430021e-01	 2.929055e-01	 0
-7.430021e-01	 2.929055e-01	 1.875000e+00
-7.430021e-01	 2.929055e-01	 2.250000e+00
-7.430021e-01	 2.929055e-01	 2.625000e+00
-7.430021e-01	 2.929055e-01	 3.000000e+00
-7.430021e-01	 2.929055e-01	 7.500000e-01
-7.430021e-01	 -2.929055e-01	 7.500000e-01
-7.362500e-01	 0	 0
-7.362500e-01	 0	 7.500000e-01
-7.362500e-01	 0	 1.500000e+00
-7.362500e-01	 0	 2.250000e+00
-7.362500e-01	 0	 3
-6.717514e-01	 -6.717514e-01	 2.625000e+00
-6.717514e-01	 6.717514e-01	 2.625000e+00
-6.717514e-01	 -6.717514e-01	 0
-6.717514e-01	 -6.717514e-01	 3.750000e-01
-6.717514e-01	 -6.717514e-01	 7.500000e-01
-6.717514e-01	 -6.717514e-01	 1.125000e+00
-6.717514e-01	 -6.717514e-01	 1.875000e+00
-6.717514e-01	 -6.717514e-01	 3.000000e+00
-6.717514e-01	 -6.717514e-01	 2.250000e+00
-6.717514e-01	 6.717514e-01	 1.500000e+00
-6.717514e-01	 6.717514e-01	 0
-6.717514e-01	 6.717514e-01	 3.750000e-01
-6.717514e-01	 6.717514e-01	 7.500000e-01
-6.717514e-01	 6.717514e-01	 1.125000e+00
-6.717514e-01	 6.717514e-01	 1.875000e+00
-6.717514e-01	 6.717514e-01	 3.000000e+00
-6.717514e-01	 -6.717514e-01	 1.500000e+00
-6.717514e-01	 6.717514e-01	 2.250000e+00
-6.682985e-01	 -2.618048e-01	 0
-6.682985e-01	 -2.618048e-01	 1.500000e+00
-6.682985e-01	 -2.618048e-01	 3
-6.682985e-01	 -2.618048e-01	 7.500000e-01
-6.682985e-01	 -2.618048e-01	 2.250000e+00
-6.682985e-01	 2.618048e-01	 7.500000e-01
-6.682985e-01	 2.618048e-01	 2.250000e+00
-6.682985e-01	 2.618048e-01	 0
-6.682985e-01	 2.618048e-01	 1.500000e+00
-6.682985e-01	 2.618048e-01	 3
-6.665713e-01	 -4.348738e-01	 2.250000e+00
-6.665713e-01	 -4.348738e-01	 7.500000e-01
-6.665713e-01	 4.348738e-01	 7.500000e-01
-6.665713e-01	 4.348738e-01	 2.250000e+00
-6.665713e-01	 -4.348738e-01	 0
-6.665713e-01	 -4.348738e-01	 3
-6.665713e-01	 4.348738e-01	 0
-6.665713e-01	 4.348738e-01	 1.500000e+00
-6.665713e-01	 4.348738e-01	 3
-6.665713e-01	 -4.348738e-01	 1.500000e+00
-6.650000e-01	 0	 7.500000e-01
-6.650000e-01	 0	 0
-6.650000e-01	 0	 3.750000e-01
-6.650000e-01	 0	 1.125000e+00
-6.650000e-01	 0	 1.500000e+00
-6.650000e-01	 0	 1.875000e+00
-6.650000e-01	 0	 2.625000e+00
-6.650000e-01	 0	 3
-6.650000e-01	 0	 2.250000e+00
-6.383743e-01	 -1.144482e-01	 0
-6.383743e-01	 -1.144482e-01	 3.000000e+00
-6.383743e-01	 -1.144482e-01	 7.500000e-01
-6.383743e-01	 -1.144482e-01	 1.500000e+00
-6.383743e-01	 -1.144482e-01	 2.250000e+00
-6.383743e-01	 1.144482e-01	 7.500000e-01
-6.383743e-01	 1.144482e-01	 1.500000e+00
-6.383743e-01	 1.144482e-01	 0
-6.383743e-01	 1.144482e-01	 2.250000e+00
-6.383743e-01	 1.144482e-01	 3.000000e+00
-6.189903e-01	 -6.189903e-01	 0
-6.189903e-01	 -6.189903e-01	 1.500000e+00
-6.189903e-01	 -6.189903e-01	 3.000000e+00
-6.189903e-01	 6.189903e-01	 2.250000e+00
-6.189903e-01	 6.189903e-01	 0
-6.189903e-01	 6.189903e-01	 1.500000e+00
-6.189903e-01	 6.189903e-01	 3.000000e+00
-6.189903e-01	 -6.189903e-01	 2.250000e+00
-6.189903e-01	 -6.189903e-01	 7.500000e-01
-6.189903e-01	 6.189903e-01	 7.500000e-01
-5.937500e-01	 0	 0
-5.937500e-01	 0	 7.500000e-01
-5.937500e-01	 0	 1.500000e+00
-5.937500e-01	 0	 2.250000e+00
-5.937500e-01	 0	 3
-5.917666e-01	 2.294176e-01	 1.875000e+00
-5.917666e-01	 2.294176e-01	 2.250000e+00
-5.917666e-01	 -2.294176e-01	 2.250000e+00
-5.917666e-01	 -2.294176e-01	 0
-5.917666e-01	 -2.294176e-01	 2.625000e+00
-5.917666e-01	 -2.294176e-01	 3
-5.917666e-01	 -2.294176e-01	 1.500000e+00
-5.917666e-01	 -2.294176e-01	 1.875000e+00
-5.917666e-01	 2.294176e-01	 0
-5.917666e-01	 2.294176e-01	 2.625000e+00
-5.917666e-01	 2.294176e-01	 3
-5.917666e-01	 2.294176e-01	 1.500000e+00
-5.917666e-01	 -2.294176e-01	 3.750000e-01
-5.917666e-01	 -2.294176e-01	 7.500000e-01
-5.917666e-01	 -2.294176e-01	 1.125000e+00
-5.917666e-01	 2.294176e-01	 7.500000e-01
-5.917666e-01	 2.294176e-01	 1.125000e+00
-5.917666e-01	 2.294176e-01	 3.750000e-01
-5.620800e-01	 5.620800e-01	 1.125000e+00
-5.620800e-01	 -5.620800e-01	 1.125000e+00
-5.620800e-01	 -5.620800e-01	 3.750000e-01
-5.620800e-01	 -5.620800e-01	 7.500000e-01
-5.620800e-01	 -5.620800e-01	 1.875000e+00
-5.620800e-01	 -5.620800e-01	 2.625000e+00
-5.620800e-01	 5.620800e-01	 3.750000e-01
-5.620800e-01	 5.620800e-01	 7.500000e-01
-5.620800e-01	 5.620800e-01	 1.875000e+00
-5.620800e-01	 -5.620800e-01	 0
-5.620800e-01	 -5.620800e-01	 1.500000e+00
-5.620800e-01	 -5.620800e-01	 2.250000e+00
-5.620800e-01	 -5.620800e-01	 3
-5.620800e-01	 5.620800e-01	 0
-5.620800e-01	 5.620800e-01	 1.500000e+00
-5.620800e-01	 5.620800e-01	 2.250000e+00
-5.620800e-01	 5.620800e-01	 3
-5.620800e-01	 5.620800e-01	 2.625000e+00
-5.250231e-01	 -3.396892e-01	 7.500000e-01
-5.250231e-01	 3.396892e-01	 1.500000e+00
-5.250231e-01	 3.396892e-01	 2.250000e+00
-5.250231e-01	 3.396892e-01	 7.500000e-01
-5.250231e-01	 -3.396892e-01	 2.250000e+00
-5.250231e-01	 -3.396892e-01	 0
-5.250231e-01	 -3.396892e-01	 1.500000e+00
-5.250231e-01	 -3.396892e-01	 3.000000e+00
-5.250231e-01	 3.396892e-01	 0
-5.250231e-01	 3.396892e-01	 3.000000e+00
-5.225000e-01	 0	 1.500000e+00
-5.225000e-01	 0	 2.250000e+00
-5.225000e-01	 0	 0
-5.225000e-01	 0	 3.750000e-01
-5.225000e-01	 0	 7.500000e-01
-5.225000e-01	 0	 1.125000e+00
-5.225000e-01	 0	 1.875000e+00
-5.225000e-01	 0	 2.625000e+00
-5.225000e-01	 0	 3
-5.198493e-01	 7.951457e-01	 7.500000e-01
-5.198493e-01	 -7.951457e-01	 7.500000e-01
-5.198493e-01	 -7.951457e-01	 0
-5.198493e-01	 -7.951457e-01	 1.500000e+00
-5.198493e-01	 -7.951457e-01	 2.250000e+00
-5.198493e-01	 -7.951457e-01	 3
-5.198493e-01	 7.951457e-01	 0
-5.198493e-01	 7.951457e-01	 1.500000e+00
-5.198493e-01	 7.951457e-01	 2.250000e+00
-5.198493e-01	 7.951457e-01	 3
-5.143216e-01	 -1.961513e-01	 2.250000e+00
-5.143216e-01	 1.961513e-01	 7.500000e-01
-5.143216e-01	 1.961513e-01	 1.500000e+00
-5.143216e-01	 -1.961513e-01	 7.500000e-01
-5.143216e-01	 -1.961513e-01	 0
-5.143216e-01	 -1.961513e-01	 3.000000e+00
-5.143216e-01	 -1.961513e-01	 1.500000e+00
-5.143216e-01	 1.961513e-01	 2.250000e+00
-5.143216e-01	 1.961513e-01	 0
-5.143216e-01	 1.961513e-01	 3.000000e+00
-5.020120e-01	 -5.020120e-01	 7.500000e-01
-5.020120e-01	 -5.020120e-01	 1.500000e+00
-5.020120e-01	 5.020120e-01	 7.500000e-01
-5.020120e-01	 5.020120e-01	 1.500000e+00
-5.020120e-01	 -5.020120e-01	 0
-5.020120e-01	 -5.020120e-01	 2.250000e+00
-5.020120e-01	 -5.020120e-01	 3.000000e+00
-5.020120e-01	 5.020120e-01	 0
-5.020120e-01	 5.020120e-01	 2.250000e+00
-5.020120e-01	 5.020120e-01	 3.000000e+00
-4.847636e-01	 8.158725e-02	 7.500000e-01
-4.847636e-01	 -8.158725e-02	 7.500000e-01
[...]
POINT_DATA 1641
SCALARS pres_adim float 1
LOOKUP_TABLE default
-1.999051e+02
-1.421188e+02
1.419866e+02
1.997661e+02
1.419864e+02
-6.294141e-02
-1.421188e+02
-1.999048e+02
-6.275183e-02
1.520000e+02
-1.520924e+02
-1.520922e+02
-8.057521e-02
-2.425744e+02
2.423935e+02
-2.425743e+02
-4.305671e-02
-4.318962e-02
-8.051701e-02
6.686950e+01
6.686962e+01
-6.690989e+01
-2.056597e-02
1.971569e+02
-9.386625e+01
-9.386638e+01
-6.690984e+01
-2.067278e-02
-1.973632e+02
-9.663809e-02
-9.647272e-02
-1.973632e+02
-2.776722e+02
1.971571e+02
-2.776725e+02
9.382693e+01
2.774530e+02
-6.353476e-02
-1.988476e+02
1.987075e+02
-1.988473e+02
-6.334603e-02
-2.094542e-02
-9.753639e-02
-2.084180e-02
-9.737444e-02
-9.345965e+01
9.341937e+01
-9.345979e+01
2.758747e+02
-2.760951e+02
-2.760954e+02
-6.511332e-02
-6.527716e-02
-1.382958e+02
1.381589e+02
-1.382958e+02
-1.944757e+02
1.381591e+02
1.943324e+02
-1.944755e+02
3.641723e-03
-1.095975e-01
-3.112286e+01
3.114057e+01
3.878604e-03
-3.112323e+01
-3.049823e+02
3.047316e+02
-1.093732e-01
-3.049826e+02
-4.497782e-02
-8.353731e-02
-2.353484e+02
-2.353484e+02
-1.479408e+02
1.478440e+02
-4.509452e-02
-1.479406e+02
2.351627e+02
-8.359116e-02
9.147004e+01
2.686702e+02
-2.184388e-02
-9.151358e+01
-9.151367e+01
-1.912124e+02
-6.522598e+01
6.518228e+01
6.518236e+01
-6.522601e+01
1.909999e+02
-2.688945e+02
1.910001e+02
-1.001504e-01
-1.912124e+02
-2.688946e+02
-1.002777e-01
-2.191963e-02
-1.880726e+02
-6.769766e-02
1.879245e+02
-6.783864e-02
-1.880724e+02
2.485755e+01
-2.258448e+02
3.493843e+01
2.485757e+01
2.869212e-02
-2.479121e+01
-2.479119e+01
3.493835e+01
2.872398e-02
3.172080e+02
-3.174807e+02
-2.258448e+02
-1.181984e-01
2.255903e+02
2.255902e+02
-3.174807e+02
-3.486312e+01
-1.182298e-01
-8.846008e+01
8.841146e+01
-8.846012e+01
-2.339620e-02
-2.334910e-02
-1.044449e-01
-1.043580e-01
-2.578153e+02
2.575855e+02
-2.578154e+02
3.582817e-03
3.399857e-03
-1.138472e-01
-1.136690e-01
-3.041413e+01
-3.041441e+01
-2.952094e+02
2.949534e+02
-2.952096e+02
3.042852e+01
-7.056235e-02
-1.784652e+02
-1.269042e+02
1.267570e+02
1.783120e+02
1.267569e+02
-1.269042e+02
-1.784651e+02
-7.067770e-02
-1.351889e+02
-1.351887e+02
-4.988999e-02
1.350807e+02
-4.996962e-02
-9.035245e-02
2.122853e+02
-2.124811e+02
-9.040429e-02
-2.124810e+02
3.474250e+01
-3.466767e+01
3.474243e+01
-1.192979e-01
-3.157025e+02
3.154286e+02
-3.157024e+02
2.890571e-02
2.887589e-02
-1.192663e-01
-1.670155e+02
-7.294526e-02
1.668583e+02
-7.303298e-02
-1.670154e+02
1.706752e+02
-1.086437e-01
-2.522516e-02
-8.355877e+01
-5.951698e+01
-8.355878e+01
8.350388e+01
5.946432e+01
-2.403101e+02
-1.709011e+02
-2.403102e+02
2.400756e+02
-5.951699e+01
-2.524853e-02
5.946429e+01
-1.086859e-01
1.706751e+02
-1.709011e+02
2.184078e+02
-2.400156e+01
2.406764e+01
2.947718e-02
-2.400153e+01
2.406762e+01
-2.186694e+02
-1.227766e-01
2.184077e+02
3.381102e+01
-3.373783e+01
2.950272e-02
3.381095e+01
-3.072448e+02
3.069671e+02
-1.227966e-01
-3.072448e+02
-2.186694e+02
2.360903e-03
2.619584e+02
-1.236282e-01
-1.236964e-01
2.441582e-03
-2.811249e+01
2.811680e+01
-2.811260e+01
-2.622244e+02
-2.622246e+02
1.525104e+02
-7.403244e-02
-1.526688e+02
-1.084389e+02
-7.396423e-02
1.082857e+02
1.082857e+02
-1.084389e+02
-1.526687e+02
-1.217046e-01
5.263834e-02
9.983472e+01
-9.970490e+01
5.242186e-02
9.983503e+01
-3.193946e+02
3.191117e+02
-1.219589e-01
-3.193942e+02
-2.705364e-02
-1.110194e-01
2.186771e+02
-2.705948e-02
-7.772635e+01
-7.772633e+01
7.766529e+01
-1.110184e-01
-2.189122e+02
-2.189122e+02
3.034135e-02
-3.228081e+01
-1.280713e-01
2.937066e+02
3.235105e+01
3.036436e-02
3.235099e+01
-2.939895e+02
-1.280839e-01
-2.939895e+02
-9.227644e-02
-5.340839e-02
-1.141207e+02
1.140044e+02
-1.141206e+02
-5.344913e-02
-1.743883e+02
1.741935e+02
-9.232070e-02
-1.743883e+02
1.366058e+02
-7.299902e-02
-1.367611e+02
-7.295475e-02
-1.367611e+02
-2.128670e+01
1.937121e+02
2.999326e+01
2.135068e+01
2.999321e+01
2.135069e+01
-2.992750e+01
1.937121e+02
-2.725780e+02
-1.939888e+02
-2.725780e+02
-2.128668e+01
3.112068e-02
-1.334088e-01
-1.939888e+02
2.722915e+02
-1.333972e-01
3.109814e-02
4.990045e+01
7.023694e+01
-1.363960e+02
-1.363961e+02
1.917199e+02
1.361729e+02
-2.819996e-02
-4.996127e+01
-4.996130e+01
-2.820363e-02
-1.919475e+02
-1.093095e-01
-1.093262e-01
-1.919476e+02
1.361729e+02
4.990045e+01
-7.030222e+01
-7.030220e+01
-1.264989e-01
5.421499e-02
-3.092234e+02
-3.092232e+02
5.438078e-02
9.692932e+01
-9.680029e+01
9.692954e+01
3.089361e+02
-1.263066e-01
-1.184585e+02
-8.383333e+01
-6.902099e-02
8.369120e+01
1.183123e+02
8.369118e+01
-6.904952e-02
-8.383332e+01
-1.184585e+02
2.013044e-04
2.296705e-04
-2.420481e+01
-2.420482e+01
2.419674e+01
-2.059920e+02
2.057380e+02
-1.234461e-01
-2.059920e+02
-1.234380e-01
3.122485e-02
2.711334e+01
3.120116e-02
-2.705353e+01
2.711330e+01
-2.464224e+02
-1.360262e-01
2.461382e+02
-2.464224e+02
-1.360360e-01
-2.854728e-02
-6.220342e+01
-6.220340e+01
-1.621299e+02
-1.621299e+02
-1.019583e-01
-2.854906e-02
-1.019358e-01
1.619203e+02
6.213660e+01
-1.123666e+02
1.580320e+02
-1.123668e+02
1.580323e+02
-1.578541e+02
-3.053940e+02
-3.053938e+02
2.168530e+02
2.168529e+02
-2.171137e+02
1.125293e+02
7.377202e-02
7.361316e-02
1.125294e+02
3.051131e+02
-2.171137e+02
-1.203797e-01
-1.202695e-01
5.852171e-02
-8.709211e+01
5.846276e-02
-1.370639e-01
-1.369895e-01
8.721690e+01
8.721696e+01
-2.749149e+02
2.746205e+02
-2.749149e+02
-4.997952e-02
8.649068e+01
-8.659907e+01
-4.999131e-02
-8.659905e+01
-1.239656e+02
1.238018e+02
-7.889243e-02
-1.239656e+02
-7.887275e-02
7.436541e-02
7.420878e-02
-1.213017e-01
-1.214079e-01
1.572637e+02
1.572639e+02
-3.036874e+02
3.034056e+02
-3.036873e+02
-1.570857e+02
3.001214e-02
-1.327455e-01
1.514656e+02
-1.664321e+01
2.348222e+01
1.669941e+01
-2.342985e+01
-1.664319e+01
1.669941e+01
2.348219e+01
-2.134359e+02
-1.517338e+02
2.131651e+02
1.514657e+02
-1.517338e+02
-2.134359e+02
3.003537e-02
-1.327574e-01
-1.534859e+02
1.094333e+02
-2.104366e+02
-1.245910e-01
2.955914e+02
1.536643e+02
-1.092679e+02
7.618589e-02
1.094333e+02
1.536645e+02
2.101699e+02
2.101698e+02
-2.958758e+02
-2.958757e+02
-1.092678e+02
7.630818e-02
-1.245132e-01
-2.104366e+02
-3.772099e+01
-5.319775e+01
3.766128e+01
5.313340e+01
3.766128e+01
-2.752603e-02
-3.772097e+01
-5.319773e+01
-1.289392e+02
-8.809690e-02
-8.810912e-02
-9.142653e+01
-1.289392e+02
9.124867e+01
1.287598e+02
-2.753031e-02
-9.142652e+01
9.124866e+01
1.480652e+02
-1.478870e+02
1.480653e+02
-2.838434e+02
2.835557e+02
-2.838433e+02
7.918913e-02
7.910233e-02
-1.293436e-01
-1.293928e-01
1.950002e+01
2.724731e-02
-1.945626e+01
1.950001e+01
-1.772539e+02
-1.219729e-01
1.770099e+02
-1.772539e+02
2.726827e-02
-1.219823e-01
5.871630e-02
-1.367936e-01
-1.368040e-01
7.067995e+01
-7.056855e+01
5.872168e-02
7.067992e+01
-2.164312e+02
-2.164313e+02
2.161538e+02
9.627233e+01
5.777510e+01
1.924764e+01
-5.785307e+01
-5.785305e+01
1.334193e+02
-1.926384e+01
-2.908297e-03
-1.926383e+01
-2.920902e-03
-3.533306e-02
-3.533514e-02
-9.641083e+01
-6.757486e-02
-9.641083e+01
-6.758111e-02
-9.624914e-02
-1.336120e+02
-9.625846e-02
-1.336120e+02
-1.342902e-01
8.222927e-02
-1.389641e+02
9.905735e+01
-1.883544e+02
1.391410e+02
9.905735e+01
1.391410e+02
-1.342680e-01
-2.648154e+02
-1.883543e+02
-2.648154e+02
-9.888668e+01
8.228127e-02
-9.888664e+01
1.880754e+02
2.645261e+02
1.880754e+02
-1.369925e-01
-1.282225e+02
1.283953e+02
1.283953e+02
-2.415917e+02
-2.415917e+02
8.431748e-02
8.429910e-02
2.413059e+02
-1.369935e-01
2.274611e-02
-1.027622e-01
1.073878e+01
6.224166e+01
-4.316919e-02
-9.757831e+01
1.513719e+01
-1.069892e+01
-1.510295e+01
-1.069891e+01
2.276249e-02
1.073879e+01
1.513720e+01
-4.416464e+01
-4.416465e+01
-6.233231e+01
4.407615e+01
-6.233229e+01
-4.316930e-02
-1.376044e+02
9.737418e+01
1.374017e+02
9.737419e+01
-1.027674e-01
-9.757832e+01
-1.376044e+02
4.407615e+01
2.821397e+02
2.098662e+02
-2.096487e+02
2.098661e+02
-2.824077e+02
-2.824079e+02
9.118432e-02
9.111777e-02
-1.142553e-01
-1.141116e-01
-8.141161e+01
1.506013e+02
-1.146151e+02
-8.141159e+01
1.506014e+02
-1.349419e-01
2.120372e+02
8.157752e+01
1.147795e+02
8.374811e-02
8.374222e-02
1.147795e+02
-2.123107e+02
-2.123107e+02
-1.508730e+02
8.157755e+01
-1.508730e+02
-1.349463e-01
9.410089e-02
2.040013e+02
2.040012e+02
-1.179862e-01
-2.037827e+02
9.415290e-02
-2.740784e+02
2.738078e+02
-1.178658e-01
-2.740786e+02
1.810042e-02
-8.223873e-02
1.047582e+02
-4.940748e+01
4.949200e+01
4.809768e-02
4.949200e+01
1.811053e-02
1.154114e+01
-1.151495e+01
1.154115e+01
-2.753158e+01
2.749383e+01
-1.596619e-02
-2.753156e+01
-1.596970e-02
-5.066263e-02
-6.662323e+01
-6.662322e+01
-5.066269e-02
-1.049191e+02
-8.224160e-02
-1.049191e+02
-1.411755e+02
-1.075899e-01
-1.411755e+02
1.409657e+02
4.808331e-02
6.652125e+01
-1.075885e-01
7.981268e-02
-9.968665e+01
9.983781e+01
9.983776e+01
7.980648e-02
1.797070e+02
-1.263713e-01
-1.799567e+02
-1.799567e+02
-1.263643e-01
1.858376e+02
1.011755e-01
1.858376e+02
-2.478060e+02
-2.478061e+02
2.475323e+02
-1.263498e-01
-1.264218e-01
1.011491e-01
-1.856184e+02
7.050680e+01
-5.887865e+01
-8.308501e+01
5.508492e+00
5.508513e+00
1.259029e-02
-5.005431e+01
-1.020728e+02
8.321715e+01
7.159852e-02
7.160579e-02
5.901631e+01
8.321714e+01
-5.887863e+01
7.767838e+00
7.767857e+00
1.258644e-02
-5.487059e+00
-7.750125e+00
-7.061850e+01
-5.744323e-02
4.994101e+01
-5.744463e-02
-5.005431e+01
-7.061850e+01
-1.101906e-01
-1.439459e+02
1.018559e+02
1.437324e+02
1.018559e+02
-1.101892e-01
-1.020728e+02
-1.439459e+02
5.901631e+01
-5.487054e+00
4.994101e+01
1.039444e-01
-1.284616e-01
1.557615e+02
-1.555528e+02
1.039504e-01
1.557615e+02
-2.040818e+02
2.038208e+02
-2.040818e+02
-1.284307e-01
9.233223e-02
7.037750e-02
-2.955648e-02
-9.097605e-02
1.460757e+02
1.163299e+02
-1.161546e+02
9.233425e-02
1.163299e+02
-8.061128e+01
8.074110e+01
8.074110e+01
7.037336e-02
4.094046e-02
3.914002e+00
6.446896e-03
3.914024e+00
-3.905059e+00
6.446287e-03
-3.558345e+01
3.552621e+01
-2.955833e-02
-3.558344e+01
-7.438617e+01
-7.438617e+01
7.426653e+01
-6.317471e-02
-9.097528e-02
-1.116566e+02
-1.116566e+02
1.114835e+02
-1.462899e+02
-1.107085e-01
-1.462899e+02
-1.107159e-01
4.304230e+01
-4.296921e+01
4.304232e+01
4.093723e-02
-6.317300e-02
-5.508749e+01
-5.508748e+01
-5.495709e+01
-5.495709e+01
6.753272e-02
6.753238e-02
2.493448e+02
1.772732e+02
-1.770454e+02
-2.490978e+02
-1.770452e+02
1.045339e-01
1.772732e+02
2.493446e+02
1.043339e-01
1.053435e-01
2.480255e+02
-2.477780e+02
2.480252e+02
1.051457e-01
1.075429e-01
1.077048e-01
1.725043e+02
-1.722722e+02
1.725042e+02
2.425714e+02
-1.722724e+02
-2.423227e+02
2.425712e+02
2.345831e+02
1.110193e-01
-2.343329e+02
1.111435e-01
2.345829e+02
1.147646e-01
2.225977e+02
1.582941e+02
-1.580540e+02
-2.223471e+02
-1.580539e+02
1.582940e+02
2.225976e+02
1.148502e-01
2.083143e+02
1.176586e-01
-2.080657e+02
1.177027e-01
2.083142e+02
-1.901752e+02
1.184104e-01
1.904176e+02
1.352604e+02
1.183890e-01
-1.350208e+02
-1.350207e+02
1.352603e+02
1.904175e+02
-1.703435e+02
1.159781e-01
1.705743e+02
1.159766e-01
1.705742e+02
1.477446e+02
1.045680e+02
1.091049e-01
-1.043529e+02
-1.475326e+02
-1.043529e+02
1.091014e-01
1.045680e+02
1.477445e+02
1.320930e-05
3.178782e-05
-2.168913e-06
-2.317209e-06
1.085215e-05
-2.377854e-05
-2.556949e-05
-1.398193e-05
-5.336104e-06
-7.774025e+01
-6.756290e-02
-7.774024e+01
-6.756088e-02
7.761456e+01
-1.477446e+02
-1.045680e+02
-1.091045e-01
1.043529e+02
1.475326e+02
1.043529e+02
-1.090944e-01
-1.045680e+02
-1.477446e+02
-1.705743e+02
-1.159784e-01
-1.705743e+02
-1.159573e-01
1.703435e+02
-1.904176e+02
-1.352604e+02
-1.184105e-01
1.350207e+02
1.350208e+02
-1.352604e+02
-1.904176e+02
1.901751e+02
-1.183689e-01
-2.083143e+02
-1.177040e-01
2.080657e+02
-1.176430e-01
-2.083143e+02
-1.147566e-01
-2.225976e+02
-1.582941e+02
1.580539e+02
2.223471e+02
1.580540e+02
-1.582941e+02
-2.225978e+02
-1.148523e-01
-2.345829e+02
-1.111460e-01
2.343329e+02
-1.110187e-01
-2.345831e+02
-2.425712e+02
1.722722e+02
2.423227e+02
-2.425714e+02
-1.725042e+02
1.722724e+02
-1.725043e+02
-1.077063e-01
-1.075493e-01
-1.053429e-01
-2.480252e+02
2.477780e+02
-2.480255e+02
-1.051552e-01
-1.045325e-01
-2.493446e+02
-1.772731e+02
1.770452e+02
2.490978e+02
1.770454e+02
-1.043446e-01
-1.772732e+02
-2.493449e+02
5.508747e+01
7.774027e+01
7.774028e+01
-7.761456e+01
5.508749e+01
5.495708e+01
5.495708e+01
6.314034e-02
-3.552619e+01
-4.304228e+01
-4.097474e-02
4.296923e+01
-4.304227e+01
7.438619e+01
-7.426651e+01
7.438622e+01
3.905079e+00
1.107182e-01
1.462899e+02
-1.460757e+02
1.107072e-01
1.462899e+02
1.116566e+02
1.116566e+02
3.558348e+01
2.951284e-02
2.951054e-02
3.558350e+01
-3.913978e+00
-6.494899e-03
-3.913965e+00
-6.491972e-03
-4.097722e-02
-7.039486e-02
-7.039789e-02
-8.074108e+01
-8.074108e+01
-1.163299e+02
1.161546e+02
-9.233759e-02
-1.163299e+02
-9.233666e-02
9.095639e-02
9.096171e-02
6.313802e-02
8.061127e+01
-1.114835e+02
1.284585e-01
2.040818e+02
-2.038208e+02
2.040818e+02
-1.557615e+02
1.555527e+02
-1.039370e-01
-1.557615e+02
1.284650e-01
-1.039429e-01
1.020728e+02
-4.994101e+01
-1.262809e-02
7.750138e+00
-5.901631e+01
1.439459e+02
1.101953e-01
-1.018559e+02
-1.437324e+02
-1.018559e+02
1.101801e-01
1.020728e+02
1.439459e+02
5.740924e-02
7.061853e+01
-4.994101e+01
-7.050678e+01
5.740771e-02
5.005430e+01
7.061855e+01
-7.767815e+00
-1.262657e-02
-5.508518e+00
-7.767807e+00
-5.508516e+00
-7.160893e-02
5.887863e+01
-8.321714e+01
5.887863e+01
8.308499e+01
-7.161826e-02
-5.901631e+01
-8.321712e+01
5.005429e+01
5.487054e+00
5.487052e+00
-1.011731e-01
1.856184e+02
1.263728e-01
-2.475323e+02
1.264200e-01
2.478061e+02
2.478060e+02
-1.858376e+02
-1.011523e-01
-1.858376e+02
1.263676e-01
1.799567e+02
1.799567e+02
1.263933e-01
-1.797070e+02
-7.980182e-02
-9.983780e+01
-9.983777e+01
9.968663e+01
-7.981648e-02
1.049191e+02
1.049191e+02
1.075913e-01
5.063194e-02
-2.749381e+01
1.593531e-02
-4.810057e-02
-1.409657e+02
1.411755e+02
1.075793e-01
1.411755e+02
8.222126e-02
-1.047582e+02
8.221922e-02
5.063071e-02
2.753160e+01
2.753161e+01
1.593407e-02
-1.154112e+01
-1.813119e-02
-1.813408e-02
-1.154112e+01
1.151496e+01
-4.949199e+01
-4.811030e-02
-4.949198e+01
4.940747e+01
6.662325e+01
-6.652123e+01
6.662326e+01
2.740786e+02
-2.738078e+02
1.179838e-01
2.740784e+02
2.037827e+02
-9.411386e-02
1.178631e-01
-2.040012e+02
-2.040013e+02
-9.415297e-02
1.508730e+02
1.349842e-01
-8.157754e+01
1.508730e+02
2.123106e+02
2.123107e+02
-1.147795e+02
-8.372303e-02
-8.375283e-02
-1.147795e+02
-8.157752e+01
-2.120372e+02
1.349475e-01
-1.506014e+02
8.141158e+01
1.146151e+02
-1.506013e+02
8.141160e+01
1.140957e-01
1.142521e-01
-9.118084e-02
-9.113254e-02
2.824079e+02
2.824078e+02
-2.098661e+02
2.096488e+02
-2.098662e+02
-2.821396e+02
6.233233e+01
4.416463e+01
6.233233e+01
1.376044e+02
-9.737418e+01
-1.374017e+02
-9.737419e+01
1.027595e-01
9.757832e+01
1.376045e+02
4.314406e-02
-4.407614e+01
-4.407614e+01
-1.513717e+01
1.069891e+01
1.510295e+01
1.069891e+01
-2.277123e-02
-1.073879e+01
-1.513718e+01
9.757830e+01
4.416463e+01
-6.224165e+01
4.314973e-02
-1.073879e+01
1.027641e-01
-2.276602e-02
1.369951e-01
-2.413059e+02
-8.432219e-02
-8.427727e-02
2.415917e+02
2.415917e+02
-1.283954e+02
-1.283953e+02
1.282225e+02
1.370368e-01
-2.645261e+02
-1.880754e+02
-1.880754e+02
-8.221379e-02
9.888669e+01
9.888662e+01
2.648154e+02
1.883544e+02
2.648154e+02
1.343195e-01
-1.391411e+02
-9.905733e+01
-1.391409e+02
1.883543e+02
-9.905737e+01
1.389641e+02
-8.228618e-02
1.342709e-01
6.756506e-02
3.531836e-02
1.336120e+02
9.625606e-02
1.336120e+02
9.625277e-02
2.905941e-03
1.926386e+01
2.906180e-03
1.926385e+01
-1.334193e+02
9.641085e+01
6.757439e-02
9.641085e+01
5.785309e+01
5.785308e+01
3.532556e-02
-1.924764e+01
-9.627232e+01
-5.777508e+01
-2.161538e+02
2.164312e+02
2.164313e+02
-7.067995e+01
7.056851e+01
-5.872917e-02
-7.067991e+01
1.368035e-01
1.368471e-01
-5.869254e-02
1.219875e-01
-2.726269e-02
1.772539e+02
1.219997e-01
-1.770099e+02
1.772539e+02
-1.950000e+01
-2.725231e-02
1.945624e+01
-1.950000e+01
1.294028e-01
1.293447e-01
-7.909439e-02
-7.919654e-02
2.838433e+02
-2.835557e+02
2.838434e+02
-1.480654e+02
1.478870e+02
-1.480652e+02
8.810390e-02
-9.124865e+01
9.142652e+01
3.772098e+01
2.752408e-02
-3.766127e+01
-9.124866e+01
-1.287597e+02
1.289393e+02
8.811659e-02
9.142652e+01
1.289393e+02
5.319778e+01
-3.766127e+01
-5.313340e+01
2.753157e-02
3.772097e+01
5.319775e+01
2.104366e+02
1.245804e-01
-7.618684e-02
1.092679e+02
2.958757e+02
2.958758e+02
-2.101698e+02
-2.101699e+02
-1.536645e+02
1.092678e+02
-7.631741e-02
-1.094333e+02
-1.536643e+02
-2.955914e+02
1.245137e-01
2.104366e+02
-1.094333e+02
1.534859e+02
1.327723e-01
-3.002012e-02
2.134359e+02
1.517338e+02
-2.131651e+02
-1.514657e+02
1.517338e+02
2.134359e+02
-2.348220e+01
-1.669940e+01
2.342982e+01
1.664319e+01
-1.669940e+01
-2.348220e+01
1.664321e+01
-1.514656e+02
1.327897e-01
-3.000608e-02
1.570857e+02
3.036873e+02
-3.034056e+02
3.036874e+02
-1.572639e+02
-1.572637e+02
1.213031e-01
1.213810e-01
-7.437518e-02
-7.421603e-02
7.888948e-02
-1.238018e+02
1.239657e+02
7.890553e-02
1.239656e+02
8.659909e+01
-8.649067e+01
5.000126e-02
8.659905e+01
4.999039e-02
2.749148e+02
-2.746205e+02
2.749150e+02
-8.721700e+01
-8.721687e+01
1.370936e-01
1.369984e-01
8.709210e+01
-5.852460e-02
-5.843603e-02
1.203501e-01
1.202703e-01
2.171137e+02
-3.051130e+02
-1.125294e+02
-7.362110e-02
-7.378355e-02
-1.125294e+02
-2.168529e+02
-2.168530e+02
2.171137e+02
3.053939e+02
3.053940e+02
1.578541e+02
-1.580323e+02
1.123666e+02
-1.580321e+02
1.123667e+02
-6.213661e+01
-1.619203e+02
1.019616e-01
2.855883e-02
1.019807e-01
1.621299e+02
1.621299e+02
6.220344e+01
6.220340e+01
2.856593e-02
1.360542e-01
2.464223e+02
1.360724e-01
-2.461382e+02
2.464224e+02
-2.711332e+01
-3.119236e-02
2.705351e+01
-2.711332e+01
-3.120685e-02
1.234649e-01
2.059920e+02
-2.057380e+02
1.234815e-01
2.059920e+02
-2.419676e+01
2.420484e+01
2.420480e+01
-1.971222e-04
-2.021088e-04
1.184585e+02
8.383333e+01
6.905077e-02
-8.369118e+01
-1.183123e+02
-8.369116e+01
6.906322e-02
8.383332e+01
1.184585e+02
1.264808e-01
-3.089361e+02
-9.692953e+01
9.680031e+01
-9.692931e+01
-5.422355e-02
3.092232e+02
3.092234e+02
-5.437789e-02
1.263047e-01
7.030224e+01
7.030218e+01
-4.990044e+01
-1.361729e+02
1.919476e+02
1.093333e-01
1.093680e-01
1.919475e+02
4.996130e+01
2.822031e-02
4.996128e+01
2.822864e-02
-1.361729e+02
-1.917199e+02
1.363960e+02
1.363960e+02
-7.023695e+01
-4.990045e+01
-3.110137e-02
1.334365e-01
1.939888e+02
-2.722915e+02
1.334180e-01
-3.110103e-02
2.128669e+01
2.725780e+02
1.939888e+02
2.725780e+02
-1.937121e+02
-2.135067e+01
2.992748e+01
-2.999323e+01
-2.135068e+01
-2.999324e+01
-1.937121e+02
2.128670e+01
1.367611e+02
7.300372e-02
1.367611e+02
7.301045e-02
-1.366058e+02
1.743883e+02
-1.741935e+02
9.234070e-02
1.743883e+02
5.345480e-02
1.141206e+02
-1.140044e+02
1.141206e+02
5.346080e-02
9.232231e-02
2.939895e+02
1.280745e-01
2.939895e+02
-3.235100e+01
-3.034472e-02
-3.235103e+01
1.280969e-01
-2.937066e+02
-3.036625e-02
3.228081e+01
2.189122e+02
2.189122e+02
1.110745e-01
-7.766531e+01
7.772636e+01
7.772630e+01
2.707492e-02
-2.186771e+02
1.110218e-01
2.708352e-02
3.193943e+02
-3.191116e+02
1.217012e-01
3.193946e+02
-9.983499e+01
9.970493e+01
-5.263567e-02
-9.983473e+01
-5.244980e-02
1.219199e-01
1.526687e+02
1.084389e+02
7.403826e-02
-1.082857e+02
-1.082857e+02
1.084389e+02
1.526687e+02
-1.525104e+02
7.402277e-02
2.622245e+02
2.622244e+02
2.811260e+01
-2.811681e+01
2.811247e+01
-2.362442e-03
1.236469e-01
-2.619584e+02
1.237266e-01
-2.428585e-03
2.186694e+02
3.072448e+02
-3.069671e+02
1.227619e-01
3.072448e+02
-3.381095e+01
3.373785e+01
-2.948165e-02
-3.381101e+01
2.186694e+02
1.227929e-01
-2.184078e+02
-2.406762e+01
-2.406762e+01
-2.952755e-02
2.400157e+01
2.400154e+01
-2.184077e+02
1.709011e+02
1.086416e-01
-1.706752e+02
-5.946433e+01
2.524142e-02
5.951700e+01
-2.400756e+02
2.403102e+02
1.709011e+02
2.403101e+02
-8.350390e+01
-5.946429e+01
8.355879e+01
5.951697e+01
8.355872e+01
2.526173e-02
1.087185e-01
-1.706751e+02
1.670155e+02
7.303465e-02
-1.668583e+02
7.299651e-02
1.670155e+02
1.192817e-01
-2.894748e-02
-2.888017e-02
3.157025e+02