# vtk DataFile Version 3.0
Unstructured Grid Example
ASCII
DATASET UNSTRUCTURED_GRID
POINTS 832 float
-1	 0	 0
-1	 0	 3.750000e-01
-1	 0	 7.500000e-01
-1	 0	 1.125000e+00
-1	 0	 1.500000e+00
-1	 0	 1.875000e+00
-1	 0	 2.250000e+00
-1	 0	 2.625000e+00
-1	 0	 3
-9.875000e-01	 0	 0
-9.875000e-01	 0	 1.500000e+00
-9.875000e-01	 0	 3
-9.875000e-01	 0	 2.250000e+00
-9.875000e-01	 0	 7.500000e-01
-9.833054e-01	 -1.819631e-01	 7.500000e-01
-9.833054e-01	 -1.819631e-01	 0
-9.833054e-01	 -1.819631e-01	 1.500000e+00
-9.833054e-01	 -1.819631e-01	 3.000000e+00
-9.833054e-01	 1.819631e-01	 2.250000e+00
-9.833054e-01	 1.819631e-01	 0
-9.833054e-01	 1.819631e-01	 1.500000e+00
-9.833054e-01	 1.819631e-01	 3.000000e+00
-9.833054e-01	 1.819631e-01	 7.500000e-01
-9.833054e-01	 -1.819631e-01	 2.250000e+00
-9.750000e-01	 0	 7.500000e-01
-9.750000e-01	 0	 1.125000e+00
-9.750000e-01	 0	 0
-9.750000e-01	 0	 3.750000e-01
-9.750000e-01	 0	 1.875000e+00
-9.750000e-01	 0	 2.625000e+00
-9.750000e-01	 0	 3
-9.750000e-01	 0	 1.500000e+00
-9.750000e-01	 0	 2.250000e+00
-9.625000e-01	 0	 1.500000e+00
-9.625000e-01	 0	 2.250000e+00
-9.625000e-01	 0	 0
-9.625000e-01	 0	 7.500000e-01
-9.625000e-01	 0	 3
-9.587227e-01	 -1.774140e-01	 0
-9.587227e-01	 -1.774140e-01	 3.000000e+00
-9.587227e-01	 -1.774140e-01	 1.500000e+00
-9.587227e-01	 1.774140e-01	 0
-9.587227e-01	 1.774140e-01	 3.000000e+00
-9.587227e-01	 1.774140e-01	 1.500000e+00
-9.587227e-01	 1.774140e-01	 7.500000e-01
-9.587227e-01	 -1.774140e-01	 7.500000e-01
-9.587227e-01	 -1.774140e-01	 2.250000e+00
-9.587227e-01	 1.774140e-01	 2.250000e+00
-9.500000e-01	 0	 0
-9.500000e-01	 0	 3.750000e-01
-9.500000e-01	 0	 1.125000e+00
-9.500000e-01	 0	 1.500000e+00
-9.500000e-01	 0	 1.875000e+00
-9.500000e-01	 0	 2.250000e+00
-9.500000e-01	 0	 2.625000e+00
-9.500000e-01	 0	 3
-9.500000e-01	 0	 7.500000e-01
-9.341401e-01	 -1.728649e-01	 1.500000e+00
-9.341401e-01	 -1.728649e-01	 0
-9.341401e-01	 -1.728649e-01	 3.000000e+00
-9.341401e-01	 1.728649e-01	 2.250000e+00
-9.341401e-01	 1.728649e-01	 0
-9.341401e-01	 1.728649e-01	 1.500000e+00
-9.341401e-01	 1.728649e-01	 3.000000e+00
-9.341401e-01	 -1.728649e-01	 7.500000e-01
-9.341401e-01	 -1.728649e-01	 2.250000e+00
-9.341401e-01	 1.728649e-01	 7.500000e-01
-9.297883e-01	 -3.680947e-01	 1.125000e+00
-9.297883e-01	 -3.680947e-01	 0
-9.297883e-01	 -3.680947e-01	 7.500000e-01
-9.297883e-01	 -3.680947e-01	 1.500000e+00
-9.297883e-01	 -3.680947e-01	 1.875000e+00
-9.297883e-01	 -3.680947e-01	 2.250000e+00
-9.297883e-01	 -3.680947e-01	 2.625000e+00
-9.297883e-01	 -3.680947e-01	 3.000000e+00
-9.297883e-01	 -3.680947e-01	 3.750000e-01
-9.297883e-01	 3.680947e-01	 3.750000e-01
-9.297883e-01	 3.680947e-01	 2.250000e+00
-9.297883e-01	 3.680947e-01	 2.625000e+00
-9.297883e-01	 3.680947e-01	 0
-9.297883e-01	 3.680947e-01	 7.500000e-01
-9.297883e-01	 3.680947e-01	 1.500000e+00
-9.297883e-01	 3.680947e-01	 1.875000e+00
-9.297883e-01	 3.680947e-01	 3.000000e+00
-9.297883e-01	 3.680947e-01	 1.125000e+00
-9.181659e-01	 3.634935e-01	 7.500000e-01
-9.181659e-01	 -3.634935e-01	 0
-9.181659e-01	 -3.634935e-01	 7.500000e-01
-9.181659e-01	 -3.634935e-01	 2.250000e+00
-9.181659e-01	 -3.634935e-01	 3
-9.181659e-01	 3.634935e-01	 0
-9.181659e-01	 3.634935e-01	 2.250000e+00
-9.181659e-01	 3.634935e-01	 3
-9.181659e-01	 -3.634935e-01	 1.500000e+00
-9.181659e-01	 3.634935e-01	 1.500000e+00
-9.065436e-01	 -3.588923e-01	 1.125000e+00
-9.065436e-01	 -3.588923e-01	 2.625000e+00
-9.065436e-01	 -3.588923e-01	 0
-9.065436e-01	 -3.588923e-01	 3.750000e-01
-9.065436e-01	 -3.588923e-01	 1.500000e+00
-9.065436e-01	 -3.588923e-01	 3
-9.065436e-01	 3.588923e-01	 2.625000e+00
-9.065436e-01	 3.588923e-01	 1.125000e+00
-9.065436e-01	 3.588923e-01	 0
-9.065436e-01	 3.588923e-01	 3.750000e-01
-9.065436e-01	 3.588923e-01	 3
-9.065436e-01	 -3.588923e-01	 7.500000e-01
-9.065436e-01	 -3.588923e-01	 1.875000e+00
-9.065436e-01	 3.588923e-01	 1.875000e+00
-9.065436e-01	 3.588923e-01	 1.500000e+00
-9.065436e-01	 -3.588923e-01	 2.250000e+00
-9.065436e-01	 3.588923e-01	 7.500000e-01
-9.065436e-01	 3.588923e-01	 2.250000e+00
-8.949212e-01	 3.542912e-01	 1.500000e+00
-8.949212e-01	 -3.542912e-01	 1.500000e+00
-8.949212e-01	 -3.542912e-01	 0
-8.949212e-01	 -3.542912e-01	 3.000000e+00
-8.949212e-01	 3.542912e-01	 0
-8.949212e-01	 3.542912e-01	 3.000000e+00
-8.949212e-01	 -3.542912e-01	 2.250000e+00
-8.949212e-01	 -3.542912e-01	 7.500000e-01
-8.949212e-01	 3.542912e-01	 2.250000e+00
-8.949212e-01	 3.542912e-01	 7.500000e-01
-8.832989e-01	 -3.496900e-01	 1.125000e+00
-8.832989e-01	 -3.496900e-01	 1.875000e+00
-8.832989e-01	 -3.496900e-01	 2.625000e+00
-8.832989e-01	 -3.496900e-01	 2.250000e+00
-8.832989e-01	 3.496900e-01	 1.125000e+00
-8.832989e-01	 -3.496900e-01	 0
-8.832989e-01	 -3.496900e-01	 3.000000e+00
-8.832989e-01	 -3.496900e-01	 3.750000e-01
-8.832989e-01	 -3.496900e-01	 7.500000e-01
-8.832989e-01	 3.496900e-01	 3.750000e-01
-8.832989e-01	 3.496900e-01	 7.500000e-01
-8.832989e-01	 3.496900e-01	 2.250000e+00
-8.832989e-01	 3.496900e-01	 2.625000e+00
-8.832989e-01	 3.496900e-01	 0
-8.832989e-01	 3.496900e-01	 1.875000e+00
-8.832989e-01	 3.496900e-01	 3.000000e+00
-8.832989e-01	 -3.496900e-01	 1.500000e+00
-8.832989e-01	 3.496900e-01	 1.500000e+00
-8.369955e-01	 -5.472098e-01	 0
-8.369955e-01	 -5.472098e-01	 7.500000e-01
-8.369955e-01	 -5.472098e-01	 1.500000e+00
-8.369955e-01	 -5.472098e-01	 2.250000e+00
-8.369955e-01	 -5.472098e-01	 3
-8.369955e-01	 5.472098e-01	 0
-8.369955e-01	 5.472098e-01	 7.500000e-01
-8.369955e-01	 5.472098e-01	 1.500000e+00
-8.369955e-01	 5.472098e-01	 2.250000e+00
-8.369955e-01	 5.472098e-01	 3
-8.160706e-01	 -5.335295e-01	 7.500000e-01
-8.160706e-01	 5.335295e-01	 7.500000e-01
-8.160706e-01	 -5.335295e-01	 1.500000e+00
-8.160706e-01	 -5.335295e-01	 2.250000e+00
-8.160706e-01	 5.335295e-01	 1.500000e+00
-8.160706e-01	 5.335295e-01	 2.250000e+00
-8.160706e-01	 -5.335295e-01	 0
-8.160706e-01	 -5.335295e-01	 3.000000e+00
-8.160706e-01	 5.335295e-01	 0
-8.160706e-01	 5.335295e-01	 3.000000e+00
-7.951457e-01	 -5.198493e-01	 7.500000e-01
-7.951457e-01	 5.198493e-01	 7.500000e-01
-7.951457e-01	 -5.198493e-01	 0
-7.951457e-01	 -5.198493e-01	 1.500000e+00
-7.951457e-01	 -5.198493e-01	 2.250000e+00
-7.951457e-01	 -5.198493e-01	 3
-7.951457e-01	 5.198493e-01	 0
-7.951457e-01	 5.198493e-01	 1.500000e+00
-7.951457e-01	 5.198493e-01	 2.250000e+00
-7.951457e-01	 5.198493e-01	 3
-7.071068e-01	 -7.071068e-01	 0
-7.071068e-01	 -7.071068e-01	 3.750000e-01
-7.071068e-01	 -7.071068e-01	 7.500000e-01
-7.071068e-01	 -7.071068e-01	 1.125000e+00
-7.071068e-01	 -7.071068e-01	 1.500000e+00
-7.071068e-01	 -7.071068e-01	 1.875000e+00
-7.071068e-01	 -7.071068e-01	 2.250000e+00
-7.071068e-01	 -7.071068e-01	 2.625000e+00
-7.071068e-01	 -7.071068e-01	 3.000000e+00
-7.071068e-01	 7.071068e-01	 0
-7.071068e-01	 7.071068e-01	 3.750000e-01
-7.071068e-01	 7.071068e-01	 7.500000e-01
-7.071068e-01	 7.071068e-01	 1.125000e+00
-7.071068e-01	 7.071068e-01	 1.500000e+00
-7.071068e-01	 7.071068e-01	 1.875000e+00
-7.071068e-01	 7.071068e-01	 2.250000e+00
-7.071068e-01	 7.071068e-01	 2.625000e+00
-7.071068e-01	 7.071068e-01	 3.000000e+00
-6.982679e-01	 -6.982679e-01	 7.500000e-01
-6.982679e-01	 6.982679e-01	 7.500000e-01
-6.982679e-01	 -6.982679e-01	 0
-6.982679e-01	 -6.982679e-01	 2.250000e+00
-6.982679e-01	 -6.982679e-01	 3.000000e+00
-6.982679e-01	 6.982679e-01	 0
-6.982679e-01	 6.982679e-01	 2.250000e+00
-6.982679e-01	 6.982679e-01	 3.000000e+00
-6.982679e-01	 -6.982679e-01	 1.500000e+00
-6.982679e-01	 6.982679e-01	 1.500000e+00
-6.894291e-01	 -6.894291e-01	 3.750000e-01
-6.894291e-01	 -6.894291e-01	 2.625000e+00
-6.894291e-01	 -6.894291e-01	 0
-6.894291e-01	 -6.894291e-01	 1.500000e+00
-6.894291e-01	 -6.894291e-01	 2.250000e+00
-6.894291e-01	 -6.894291e-01	 3.000000e+00
-6.894291e-01	 6.894291e-01	 3.750000e-01
-6.894291e-01	 6.894291e-01	 2.625000e+00
-6.894291e-01	 -6.894291e-01	 1.875000e+00
-6.894291e-01	 6.894291e-01	 1.875000e+00
-6.894291e-01	 -6.894291e-01	 7.500000e-01
-6.894291e-01	 -6.894291e-01	 1.125000e+00
-6.894291e-01	 6.894291e-01	 0
-6.894291e-01	 6.894291e-01	 1.500000e+00
-6.894291e-01	 6.894291e-01	 2.250000e+00
-6.894291e-01	 6.894291e-01	 3.000000e+00
-6.894291e-01	 6.894291e-01	 7.500000e-01
-6.894291e-01	 6.894291e-01	 1.125000e+00
-6.805903e-01	 6.805903e-01	 7.500000e-01
-6.805903e-01	 -6.805903e-01	 7.500000e-01
-6.805903e-01	 -6.805903e-01	 0
-6.805903e-01	 -6.805903e-01	 1.500000e+00
-6.805903e-01	 -6.805903e-01	 3.000000e+00
-6.805903e-01	 6.805903e-01	 0
-6.805903e-01	 6.805903e-01	 1.500000e+00
-6.805903e-01	 6.805903e-01	 3.000000e+00
-6.805903e-01	 6.805903e-01	 2.250000e+00
-6.805903e-01	 -6.805903e-01	 2.250000e+00
-6.717514e-01	 -6.717514e-01	 2.625000e+00
-6.717514e-01	 6.717514e-01	 2.625000e+00
-6.717514e-01	 -6.717514e-01	 0
-6.717514e-01	 -6.717514e-01	 3.750000e-01
-6.717514e-01	 -6.717514e-01	 7.500000e-01
-6.717514e-01	 -6.717514e-01	 1.125000e+00
-6.717514e-01	 -6.717514e-01	 1.875000e+00
-6.717514e-01	 -6.717514e-01	 3.000000e+00
-6.717514e-01	 -6.717514e-01	 2.250000e+00
-6.717514e-01	 6.717514e-01	 1.500000e+00
-6.717514e-01	 6.717514e-01	 0
-6.717514e-01	 6.717514e-01	 3.750000e-01
-6.717514e-01	 6.717514e-01	 7.500000e-01
-6.717514e-01	 6.717514e-01	 1.125000e+00
-6.717514e-01	 6.717514e-01	 1.875000e+00
-6.717514e-01	 6.717514e-01	 3.000000e+00
-6.717514e-01	 -6.717514e-01	 1.500000e+00
-6.717514e-01	 6.717514e-01	 2.250000e+00
-5.472098e-01	 -8.369955e-01	 0
-5.472098e-01	 -8.369955e-01	 7.500000e-01
-5.472098e-01	 -8.369955e-01	 1.500000e+00
-5.472098e-01	 -8.369955e-01	 2.250000e+00
-5.472098e-01	 -8.369955e-01	 3
-5.472098e-01	 8.369955e-01	 0
-5.472098e-01	 8.369955e-01	 7.500000e-01
-5.472098e-01	 8.369955e-01	 1.500000e+00
-5.472098e-01	 8.369955e-01	 2.250000e+00
-5.472098e-01	 8.369955e-01	 3
-5.335295e-01	 -8.160706e-01	 1.500000e+00
-5.335295e-01	 -8.160706e-01	 2.250000e+00
-5.335295e-01	 8.160706e-01	 0
-5.335295e-01	 8.160706e-01	 3.000000e+00
[...]
POINT_DATA 832
VECTORS displacement float
0	 0	 5.482343e-11
2.536893e-10	 1.057429e-10	 3.587021e-11
3.368831e-10	 1.529929e-10	 -4.520214e-17
2.536893e-10	 1.057427e-10	 -3.587030e-11
-5.254653e-17	 -2.001877e-16	 -5.482351e-11
-2.536894e-10	 -1.057431e-10	 -3.587029e-11
-3.368832e-10	 -1.529932e-10	 -2.119497e-17
-2.536894e-10	 -1.057430e-10	 3.587024e-11
0	 0	 5.482346e-11
0	 0	 4.425314e-11
-5.267239e-17	 -2.074676e-16	 -4.425322e-11
0	 0	 4.425317e-11
-3.382159e-10	 -1.746610e-10	 -2.166334e-17
3.382158e-10	 1.746607e-10	 -4.473390e-17
5.808920e-10	 1.893698e-10	 -6.609257e-17
0	 0	 9.794644e-11
-1.572248e-16	 -2.087057e-16	 -9.794655e-11
0	 0	 9.794653e-11
-2.124973e-11	 -1.710732e-10	 -3.844578e-17
0	 0	 -1.191527e-12
7.252705e-17	 -2.058955e-16	 1.191476e-12
0	 0	 -1.191548e-12
2.124983e-11	 1.710729e-10	 -2.329769e-17
-5.808922e-10	 -1.893701e-10	 -3.937624e-18
3.391532e-10	 1.962219e-10	 -4.427039e-17
2.547404e-10	 1.375213e-10	 -2.401680e-11
0	 0	 3.373857e-11
2.547404e-10	 1.375214e-10	 2.401671e-11
-2.547405e-10	 -1.375217e-10	 -2.401679e-11
-2.547405e-10	 -1.375216e-10	 2.401674e-11
0	 0	 3.373860e-11
-5.271629e-17	 -2.148378e-16	 -3.373865e-11
-3.391532e-10	 -1.962222e-10	 -2.212685e-17
-5.277680e-17	 -2.220978e-16	 -2.320390e-11
-3.400268e-10	 -2.175328e-10	 -2.259096e-17
0	 0	 2.320381e-11
3.400268e-10	 2.175325e-10	 -4.380629e-17
0	 0	 2.320384e-11
0	 0	 6.134413e-11
0	 0	 6.134421e-11
-1.549369e-16	 -2.232738e-16	 -6.134424e-11
0	 0	 -3.848582e-13
0	 0	 -3.848734e-13
6.892663e-17	 -2.248607e-16	 3.848041e-13
2.937047e-11	 2.148286e-10	 -2.549573e-17
5.787740e-10	 2.089961e-10	 -6.231966e-17
-5.787742e-10	 -2.089964e-10	 -7.711513e-18
-2.937038e-11	 -2.148289e-10	 -3.624398e-17
0	 0	 1.258782e-11
2.548883e-10	 1.691623e-10	 1.211649e-11
2.548883e-10	 1.691622e-10	 -1.211658e-11
-5.272312e-17	 -2.293575e-16	 -1.258790e-11
-2.548884e-10	 -1.691626e-10	 -1.211657e-11
-3.404552e-10	 -2.390809e-10	 -2.306139e-17
-2.548883e-10	 -1.691625e-10	 1.211652e-11
0	 0	 1.258784e-11
3.404551e-10	 2.390806e-10	 -4.333598e-17
-1.527051e-16	 -2.379427e-16	 -2.469993e-11
0	 0	 2.469982e-11
0	 0	 2.469989e-11
-3.770349e-11	 -2.590631e-10	 -3.403765e-17
0	 0	 4.407598e-13
6.557512e-17	 -2.440149e-16	 -4.408171e-13
0	 0	 4.407509e-13
5.745768e-10	 2.284457e-10	 -5.853724e-17
-5.745771e-10	 -2.284461e-10	 -1.149494e-17
3.770358e-11	 2.590627e-10	 -2.769825e-17
4.582665e-10	 1.696658e-10	 -6.906828e-11
0	 0	 1.063034e-10
6.074360e-10	 2.221110e-10	 -8.536124e-17
-2.765564e-16	 -2.401902e-16	 -1.063035e-10
-4.582670e-10	 -1.696662e-10	 -6.906823e-11
-6.074364e-10	 -2.221114e-10	 1.273120e-17
-4.582668e-10	 -1.696661e-10	 6.906825e-11
0	 0	 1.063035e-10
4.582666e-10	 1.696659e-10	 6.906812e-11
-2.201138e-10	 1.978998e-10	 -3.906194e-11
2.865353e-10	 -2.730028e-10	 -5.438536e-17
2.201140e-10	 -1.979000e-10	 -3.906200e-11
0	 0	 -5.995294e-11
-2.865349e-10	 2.730024e-10	 -1.477109e-18
2.276260e-16	 -2.481745e-16	 5.995293e-11
2.201141e-10	 -1.979001e-10	 3.906190e-11
0	 0	 -5.995302e-11
-2.201137e-10	 1.978996e-10	 3.906193e-11
-2.804733e-10	 2.924397e-10	 -4.424847e-18
0	 0	 8.586696e-11
6.106267e-10	 2.209298e-10	 -8.195041e-17
-6.106271e-10	 -2.209302e-10	 9.321050e-18
0	 0	 8.586709e-11
0	 0	 -4.833902e-11
2.804736e-10	 -2.924401e-10	 -5.143849e-17
0	 0	 -4.833908e-11
-2.737110e-16	 -2.485272e-16	 -8.586710e-11
2.241587e-16	 -2.585582e-16	 4.833899e-11
4.615037e-10	 1.668228e-10	 -4.635145e-11
-4.615041e-10	 -1.668231e-10	 4.635141e-11
0	 0	 6.552719e-11
4.615039e-10	 1.668229e-10	 4.635130e-11
-2.709028e-16	 -2.569192e-16	 -6.552732e-11
0	 0	 6.552731e-11
2.105004e-10	 -2.253949e-10	 -2.620003e-11
-2.105001e-10	 2.253946e-10	 2.619996e-11
0	 0	 -3.678552e-11
-2.105003e-10	 2.253947e-10	 -2.619997e-11
0	 0	 -3.678558e-11
6.131525e-10	 2.195048e-10	 -7.853264e-17
-4.615042e-10	 -1.668233e-10	 -4.635140e-11
2.105006e-10	 -2.253951e-10	 2.619993e-11
2.206072e-16	 -2.687452e-16	 3.678549e-11
-6.131529e-10	 -2.195051e-10	 5.904110e-18
-2.740359e-10	 3.116588e-10	 -7.365374e-18
2.740363e-10	 -3.116591e-10	 -4.849876e-17
2.169650e-16	 -2.788765e-16	 2.522578e-11
-2.680712e-16	 -2.651653e-16	 -4.515950e-11
0	 0	 4.515937e-11
0	 0	 4.515948e-11
0	 0	 -2.522581e-11
0	 0	 -2.522586e-11
-6.156286e-10	 -2.181183e-10	 2.485593e-18
6.156282e-10	 2.181179e-10	 -7.511328e-17
2.676725e-10	 -3.306512e-10	 -4.555664e-17
-2.676722e-10	 3.306508e-10	 -1.030832e-17
4.632585e-10	 1.634346e-10	 -2.354606e-11
-4.632590e-10	 -1.634351e-10	 -2.354602e-11
-4.632589e-10	 -1.634349e-10	 2.354601e-11
-6.173753e-10	 -2.163932e-10	 -9.323721e-19
-2.000462e-10	 2.524337e-10	 1.330290e-11
0	 0	 2.463909e-11
0	 0	 2.463919e-11
4.632587e-10	 1.634347e-10	 2.354592e-11
6.173749e-10	 2.163929e-10	 -7.169463e-17
-2.000463e-10	 2.524338e-10	 -1.330293e-11
-2.607833e-10	 3.496469e-10	 -1.326064e-17
2.607836e-10	 -3.496473e-10	 -4.260523e-17
2.000465e-10	 -2.524341e-10	 -1.330297e-11
0	 0	 -1.357672e-11
2.000466e-10	 -2.524342e-10	 1.330288e-11
0	 0	 -1.357676e-11
-2.653164e-16	 -2.734799e-16	 -2.463921e-11
2.131377e-16	 -2.890350e-16	 1.357668e-11
0	 0	 8.528841e-11
4.974172e-10	 1.937195e-10	 -9.938001e-17
-4.082935e-16	 -3.040711e-16	 -8.528857e-11
-4.974178e-10	 -1.937200e-10	 2.551266e-17
0	 0	 8.528859e-11
0	 0	 -1.033591e-10
-4.964688e-10	 3.992786e-10	 1.407869e-17
3.118282e-16	 -3.071629e-16	 1.033591e-10
4.964693e-10	 -3.992790e-10	 -6.302945e-17
0	 0	 -1.033592e-10
5.136886e-10	 1.710989e-10	 -8.945909e-17
-4.891585e-10	 4.131314e-10	 5.914531e-18
-3.991164e-16	 -3.193388e-16	 -5.394004e-11
-5.136892e-10	 -1.710994e-10	 1.559119e-17
3.109849e-16	 -3.094178e-16	 6.522958e-11
4.891589e-10	 -4.131318e-10	 -5.486051e-17
0	 0	 5.393989e-11
0	 0	 5.394004e-11
0	 0	 -6.522959e-11
0	 0	 -6.522967e-11
5.287027e-10	 1.472688e-10	 -7.952672e-17
-4.800298e-10	 4.259908e-10	 -2.245789e-18
0	 0	 2.256614e-11
-3.897320e-16	 -3.346571e-16	 -2.256628e-11
-5.287033e-10	 -1.472693e-10	 5.658255e-18
0	 0	 2.256626e-11
0	 0	 -2.705678e-11
3.090074e-16	 -3.109530e-16	 2.705676e-11
4.800303e-10	 -4.259912e-10	 -4.669535e-17
0	 0	 -2.705684e-11
0	 0	 2.716472e-11
1.738679e-10	 4.661522e-12	 1.778080e-11
2.410139e-10	 -3.890190e-12	 -1.020613e-16
1.738676e-10	 4.661308e-12	 -1.778099e-11
-5.103683e-16	 -3.895181e-16	 -2.716488e-11
-1.738686e-10	 -4.662036e-12	 -1.778092e-11
-2.410147e-10	 3.889639e-12	 2.852967e-17
-1.738683e-10	 -4.661823e-12	 1.778097e-11
0	 0	 2.716490e-11
0	 0	 -1.036096e-10
-3.583655e-10	 3.159366e-10	 -6.759085e-11
-4.773832e-10	 4.157752e-10	 1.537350e-17
-3.583653e-10	 3.159365e-10	 6.759088e-11
2.461198e-16	 -2.747961e-16	 1.036096e-10
3.583658e-10	 -3.159370e-10	 6.759084e-11
4.773836e-10	 -4.157756e-10	 -5.670965e-17
3.583657e-10	 -3.159369e-10	 -6.759095e-11
0	 0	 -1.036097e-10
2.581900e-10	 -2.010398e-11	 -9.588890e-17
-4.829698e-10	 4.137667e-10	 1.185088e-17
0	 0	 2.195594e-11
-2.581907e-10	 2.010342e-11	 2.235734e-17
0	 0	 2.195611e-11
0	 0	 -8.378434e-11
4.829701e-10	 -4.137671e-10	 -5.318465e-17
0	 0	 -8.378443e-11
-5.062206e-16	 -3.953604e-16	 -2.195610e-11
2.535600e-16	 -2.684858e-16	 8.378434e-11
1.982672e-10	 -1.902906e-11	 1.183394e-11
-1.982675e-10	 1.902875e-11	 1.183408e-11
0	 0	 1.677339e-11
-5.019847e-16	 -4.008535e-16	 -1.677354e-11
-2.751733e-10	 3.639436e-11	 1.619918e-17
0	 0	 1.677354e-11
-3.652947e-10	 3.117299e-10	 -4.530389e-11
3.652949e-10	 -3.117301e-10	 -4.530397e-11
-1.982678e-10	 1.902853e-11	 -1.183406e-11
3.652950e-10	 -3.117302e-10	 4.530387e-11
2.751726e-10	 -3.639493e-11	 -8.973059e-17
1.982669e-10	 -1.902928e-11	 -1.183411e-11
0	 0	 -6.405039e-11
2.607440e-16	 -2.619821e-16	 6.405039e-11
4.880695e-10	 -4.112839e-10	 -4.967696e-17
0	 0	 -6.405047e-11
-4.880691e-10	 4.112835e-10	 8.345566e-18
-3.652946e-10	 3.117297e-10	 4.530390e-11
-4.930829e-10	 4.088137e-10	 4.836391e-18
2.919461e-10	 -5.249707e-11	 -8.356561e-17
0	 0	 1.158586e-11
-4.976598e-16	 -4.062290e-16	 -1.158600e-11
0	 0	 1.158599e-11
0	 0	 -4.429680e-11
2.678068e-16	 -2.555026e-16	 4.429680e-11
0	 0	 -4.429688e-11
4.930833e-10	 -4.088140e-10	 -4.616541e-17
-2.919468e-10	 5.249650e-11	 1.003439e-17
-2.222783e-10	 4.291687e-11	 5.865429e-12
3.711321e-10	 -3.064735e-10	 -2.293451e-11
0	 0	 6.357574e-12
2.222779e-10	 -4.291719e-11	 5.865320e-12
3.087261e-10	 -6.891587e-11	 -7.737887e-17
2.222777e-10	 -4.291741e-11	 -5.865471e-12
-2.222786e-10	 4.291665e-11	 -5.865425e-12
0	 0	 6.357689e-12
-3.087268e-10	 6.891529e-11	 3.847665e-18
2.746282e-16	 -2.487014e-16	 2.439580e-11
0	 0	 -2.439581e-11
-3.711319e-10	 3.064734e-10	 -2.293445e-11
-4.975871e-10	 4.057637e-10	 1.305742e-18
-3.711317e-10	 3.064732e-10	 2.293445e-11
3.711323e-10	 -3.064737e-10	 2.293443e-11
0	 0	 -2.439587e-11
-4.930178e-16	 -4.114223e-16	 -6.357705e-12
4.975875e-10	 -4.057640e-10	 -4.263238e-17
0	 0	 -3.927020e-11
4.727186e-12	 -2.853992e-10	 -8.871166e-17
-4.918650e-16	 -4.030234e-16	 3.927006e-11
-4.727882e-12	 2.853987e-10	 1.711641e-17
0	 0	 -3.927005e-11
0	 0	 -7.352164e-11
-3.591235e-10	 3.104895e-10	 7.009405e-18
1.122028e-16	 -1.240753e-16	 7.352164e-11
3.591237e-10	 -3.104897e-10	 -4.049079e-17
0	 0	 -7.352171e-11
-5.056561e-16	 -3.949080e-16	 2.495470e-11
-3.908151e-11	 3.085718e-10	 5.584773e-18
0	 0	 -4.627476e-11
0	 0	 -4.627482e-11
1.363390e-16	 -1.087321e-16	 4.627476e-11
3.866838e-10	 -2.936922e-10	 -3.734673e-17
3.908079e-11	 -3.085724e-10	 -7.718172e-17
0	 0	 -2.495483e-11
0	 0	 -2.495472e-11
-3.866836e-10	 2.936921e-10	 3.867254e-18
-4.136719e-10	 2.753729e-10	 7.212557e-19
7.421377e-11	 -3.314162e-10	 -6.565722e-17
0	 0	 -1.063298e-11
-5.183897e-16	 -3.850473e-16	 1.063286e-11
-7.421451e-11	 3.314156e-10	 -5.941450e-18
0	 0	 -1.063289e-11
0	 0	 -1.899435e-11
1.604319e-16	 -9.290472e-17	 1.899434e-11
4.136721e-10	 -2.753730e-10	 -3.419884e-17
0	 0	 -1.899440e-11
-8.562283e-11	 -4.044690e-10	 5.763556e-11
-1.370146e-10	 9.629184e-12	 8.005661e-12
0	 0	 -8.881290e-11
-1.047167e-10	 -5.390545e-10	 -5.378036e-17
-3.502967e-16	 -1.812546e-16	 8.881280e-11
8.562218e-11	 4.044686e-10	 5.763558e-11
0	 0	 -8.881284e-11
0	 0	 -1.190752e-11
-1.955061e-10	 7.704925e-12	 -5.330590e-18
-2.400357e-18	 9.704453e-17	 1.190751e-11
1.370145e-10	 -9.629001e-12	 8.005653e-12
1.955061e-10	 -7.704787e-12	 -2.055729e-17
1.370145e-10	 -9.629054e-12	 -8.005693e-12
0	 0	 -1.190754e-11
-8.562264e-11	 -4.044689e-10	 -5.763566e-11
1.047162e-10	 5.390542e-10	 -1.444897e-17
8.562237e-11	 4.044687e-10	 -5.763561e-11
-1.370146e-10	 9.629130e-12	 -8.005673e-12
-3.732167e-16	 -1.730947e-16	 7.177240e-11
1.233765e-17	 1.032337e-16	 9.500097e-12
-9.154995e-11	 -5.464874e-10	 -5.095143e-17
0	 0	 -7.177249e-11
9.154942e-11	 5.464871e-10	 -1.727734e-17
0	 0	 -7.177244e-11
0	 0	 -9.500110e-12
-2.191334e-10	 -1.191455e-12	 -4.468776e-18
2.191334e-10	 1.191601e-12	 -2.141572e-17
0	 0	 -9.500134e-12
7.824712e-11	 5.533526e-10	 -2.008192e-17
2.426162e-10	 1.018220e-11	 -2.226131e-17
-1.708750e-10	 -3.450133e-12	 5.196495e-12
1.708750e-10	 3.450278e-12	 -5.196528e-12
0	 0	 -5.481002e-11
-6.588763e-11	 -4.139974e-10	 -3.865181e-11
0	 0	 -5.480998e-11
-3.958892e-16	 -1.645968e-16	 5.480994e-11
0	 0	 -7.114924e-12
-1.708750e-10	 -3.450193e-12	 -5.196503e-12
2.698152e-17	 1.091554e-16	 7.114911e-12
0	 0	 -7.114950e-12
-6.588785e-11	 -4.139975e-10	 3.865171e-11
6.588712e-11	 4.139972e-10	 3.865173e-11
-7.824768e-11	 -5.533528e-10	 -4.814616e-17
-2.426161e-10	 -1.018205e-11	 -3.619874e-18
1.708751e-10	 3.450338e-12	 5.196485e-12
6.588733e-11	 4.139973e-10	 -3.865177e-11
-4.183759e-16	 -1.560931e-16	 3.781833e-11
6.511558e-11	 5.601217e-10	 -2.288766e-17
2.658181e-10	 1.906405e-11	 -2.311144e-17
0	 0	 -4.738024e-12
0	 0	 -4.738053e-12
4.153428e-17	 1.150081e-16	 4.738013e-12
0	 0	 -3.781842e-11
0	 0	 -3.781838e-11
-6.511618e-11	 -5.601219e-10	 -4.533971e-17
-2.658180e-10	 -1.906389e-11	 -2.766389e-18
-4.578608e-11	 -4.222847e-10	 1.958505e-11
0	 0	 -2.070070e-11
4.578526e-11	 4.222844e-10	 1.958506e-11
0	 0	 -2.070067e-11
-4.408026e-16	 -1.470763e-16	 2.070062e-11
0	 0	 -2.336048e-12
0	 0	 -2.336079e-12
-2.044880e-10	 -1.673051e-11	 2.394401e-12
2.044881e-10	 1.673074e-11	 2.394389e-12
2.044881e-10	 1.673067e-11	 -2.394435e-12
-4.578584e-11	 -4.222846e-10	 -1.958513e-11
-5.157723e-11	 -5.663473e-10	 -4.250895e-17
5.157660e-11	 5.663471e-10	 -2.571784e-17
4.578550e-11	 4.222845e-10	 -1.958511e-11
5.632605e-17	 1.206714e-16	 2.336038e-12
-2.044880e-10	 -1.673058e-11	 -2.394407e-12
2.892019e-10	 2.819369e-11	 -2.397360e-17
-2.892018e-10	 -2.819352e-11	 -1.900794e-18
-1.255032e-10	 -6.907650e-10	 -1.041223e-17
-9.270546e-11	 -3.423143e-10	 -1.282946e-17
0	 0	 -1.129653e-10
-2.307688e-16	 2.043217e-16	 1.129653e-10
0	 0	 -1.129654e-10
0	 0	 5.214351e-11
-2.419105e-17	 2.495663e-16	 -5.214353e-11
0	 0	 5.214352e-11
1.255029e-10	 6.907653e-10	 -5.333549e-17
9.270543e-11	 3.423147e-10	 -6.133678e-18
-1.232158e-10	 -6.929671e-10	 -1.350746e-17
0	 0	 -7.086628e-11
0	 0	 -7.086633e-11
-1.338740e-10	 -3.507912e-10	 -8.234282e-18
1.338740e-10	 3.507915e-10	 -1.073107e-17
0	 0	 3.306411e-11
0	 0	 3.306410e-11
1.232154e-10	 6.929674e-10	 -5.024391e-17
-1.848385e-17	 2.508685e-16	 -3.306412e-11
-2.840130e-16	 2.144457e-16	 7.086624e-11
-1.236967e-17	 2.503189e-16	 -1.398432e-11
0	 0	 -2.873211e-11
-3.376401e-16	 2.247444e-16	 2.873207e-11
0	 0	 -2.873216e-11
0	 0	 1.398431e-11
0	 0	 1.398429e-11
1.204244e-10	 6.927540e-10	 -4.715475e-17
-1.204249e-10	 -6.927537e-10	 -1.660035e-17
-1.757083e-10	 -3.583719e-10	 -3.655840e-18
1.757083e-10	 3.583723e-10	 -1.531180e-17
0	 0	 -9.384804e-11
-6.336037e-11	 -4.371679e-10	 -6.156516e-11
-9.155169e-11	 -5.816548e-10	 2.848660e-17
-6.336048e-11	 -4.371675e-10	 6.156520e-11
-1.993522e-16	 5.949407e-16	 9.384806e-11
6.336011e-11	 4.371687e-10	 6.156514e-11
9.155141e-11	 5.816557e-10	 -8.704312e-17
6.336022e-11	 4.371683e-10	 -6.156531e-11
0	 0	 -9.384820e-11
0	 0	 -7.572757e-11
-2.252558e-16	 5.961830e-16	 7.572758e-11
0	 0	 -7.572772e-11
1.051783e-10	 5.839792e-10	 -8.131702e-17
-1.051786e-10	 -5.839784e-10	 2.275931e-17
-1.187268e-10	 -5.855945e-10	 1.705642e-17
-8.318247e-11	 -4.389644e-10	 4.102991e-11
0	 0	 -5.770774e-11
-8.318233e-11	 -4.389648e-10	 -4.102989e-11
8.318201e-11	 4.389655e-10	 4.102986e-11
8.318214e-11	 4.389652e-10	 -4.103001e-11
0	 0	 -5.770788e-11
-2.509598e-16	 5.969700e-16	 5.770775e-11
1.187265e-10	 5.855953e-10	 -7.561524e-17
-2.764868e-16	 5.975616e-16	 3.965319e-11
1.321248e-10	 5.870971e-10	 -6.990342e-17
0	 0	 -3.965320e-11
-1.321252e-10	 -5.870963e-10	 1.134348e-17
0	 0	 -3.965331e-11
0	 0	 -2.145488e-11
-1.029183e-10	 -4.391744e-10	 -2.041388e-11
-1.029184e-10	 -4.391741e-10	 2.041389e-11
-3.022191e-16	 5.976141e-16	 2.145487e-11
1.029179e-10	 4.391752e-10	 2.041385e-11
1.456752e-10	 5.877977e-10	 -6.416259e-17
1.029181e-10	 4.391749e-10	 -2.041398e-11
0	 0	 -2.145498e-11
-1.456757e-10	 -5.877968e-10	 5.601436e-18
-1.456755e-10	 -5.877971e-10	 -1.349254e-18
0	 0	 2.145490e-11
-1.029182e-10	 -4.391745e-10	 2.041390e-11
-1.029182e-10	 -4.391744e-10	 -2.041390e-11
-4.087338e-17	 1.875505e-16	 -2.145491e-11
1.029181e-10	 4.391748e-10	 -2.041391e-11
1.456754e-10	 5.877974e-10	 -1.166967e-17
1.029182e-10	 4.391747e-10	 2.041389e-11
0	 0	 2.145489e-11
0	 0	 3.965322e-11
-1.321250e-10	 -5.870965e-10	 -3.100482e-18
0	 0	 3.965321e-11
-2.931744e-17	 1.878508e-16	 -3.965323e-11
1.321250e-10	 5.870968e-10	 -9.918307e-18
-1.788411e-17	 1.876862e-16	 -5.770778e-11
1.187267e-10	 5.855950e-10	 -8.188091e-18
0	 0	 5.770777e-11
-8.318225e-11	 -4.389649e-10	 4.102991e-11
8.318223e-11	 4.389651e-10	 -4.102992e-11
8.318224e-11	 4.389650e-10	 4.102991e-11
0	 0	 5.770777e-11
-1.187267e-10	 -5.855947e-10	 -4.830466e-18
-8.318226e-11	 -4.389648e-10	 -4.102992e-11
-1.051785e-10	 -5.839786e-10	 -6.554653e-18
1.051785e-10	 5.839789e-10	 -6.463668e-18
0	 0	 7.572760e-11
-6.369957e-18	 1.874061e-16	 -7.572762e-11
0	 0	 7.572760e-11
0	 0	 9.384808e-11
-6.336029e-11	 -4.371680e-10	 6.156519e-11
-9.155155e-11	 -5.816551e-10	 -8.302142e-18
-6.336029e-11	 -4.371679e-10	 -6.156521e-11
5.299222e-18	 1.867430e-16	 -9.384809e-11
6.336030e-11	 4.371682e-10	 -6.156520e-11
9.155156e-11	 5.816553e-10	 -4.716040e-18
6.336030e-11	 4.371681e-10	 6.156519e-11
0	 0	 9.384808e-11
-1.757085e-10	 -3.583716e-10	 2.250285e-17
1.757081e-10	 3.583727e-10	 -7.510903e-17
-1.204247e-10	 -6.927538e-10	 1.921631e-18
1.204247e-10	 6.927538e-10	 -9.753238e-18
0	 0	 -1.398427e-11
0	 0	 -1.398441e-11
0	 0	 2.873211e-11
-6.239331e-17	 3.690794e-18	 -2.873211e-11
0	 0	 2.873209e-11
-2.756799e-16	 8.283528e-16	 1.398429e-11
-3.405623e-17	 -1.388007e-18	 -7.086628e-11
-2.626331e-16	 8.321351e-16	 3.306409e-11
1.232156e-10	 6.929673e-10	 -9.928546e-18
0	 0	 -3.306405e-11
0	 0	 -3.306424e-11
-1.338741e-10	 -3.507908e-10	 3.900469e-17
1.338738e-10	 3.507920e-10	 -9.161233e-17
0	 0	 7.086628e-11
0	 0	 7.086626e-11
-1.232157e-10	 -6.929673e-10	 2.096364e-18
9.270526e-11	 3.423151e-10	 -1.081199e-16
1.255031e-10	 6.907651e-10	 -1.009757e-17
0	 0	 -5.214344e-11
-2.491692e-16	 8.333083e-16	 5.214350e-11
0	 0	 -5.214367e-11
0	 0	 1.129653e-10
-5.989631e-18	 -6.513981e-18	 -1.129653e-10
0	 0	 1.129653e-10
-9.270561e-11	 -3.423139e-10	 5.551086e-17
-1.255031e-10	 -6.907652e-10	 2.264835e-18
-2.892020e-10	 -2.819307e-11	 2.750815e-17
2.892017e-10	 2.819421e-11	 -7.321010e-17
-2.044881e-10	 -1.673034e-11	 2.394452e-12
-2.232841e-16	 8.029002e-16	 -2.336073e-12
-4.578573e-11	 -4.222846e-10	 1.958510e-11
-5.157702e-11	 -5.663474e-10	 5.276468e-18
5.157686e-11	 5.663471e-10	 -8.637946e-18
4.578564e-11	 4.222845e-10	 1.958508e-11
-2.044883e-10	 -1.672990e-11	 -2.394402e-12
2.044878e-10	 1.673139e-11	 -2.394458e-12
2.044880e-10	 1.673095e-11	 2.394317e-12
0	 0	 2.336098e-12
0	 0	 2.335956e-12
-1.193407e-16	 -1.975316e-16	 -2.070066e-11
0	 0	 2.070066e-11
4.578558e-11	 4.222844e-10	 -1.958509e-11
0	 0	 2.070064e-11
-4.578580e-11	 -4.222847e-10	 -1.958509e-11
-2.658182e-10	 -1.906343e-11	 3.551608e-17
-6.511598e-11	 -5.601219e-10	 7.427044e-18
0	 0	 3.781838e-11
0	 0	 3.781835e-11
-2.337945e-16	 7.983893e-16	 -4.738047e-12
0	 0	 4.738084e-12
0	 0	 4.737919e-12
2.658179e-10	 1.906456e-11	 -8.121515e-17
6.511583e-11	 5.601217e-10	 -1.078618e-17
-1.071075e-16	 -2.024942e-16	 -3.781837e-11
6.588746e-11	 4.139973e-10	 3.865174e-11
-2.426163e-10	 -1.018159e-11	 4.348958e-17
1.708748e-10	 3.450994e-12	 -5.196560e-12
-7.824749e-11	 -5.533529e-10	 9.558923e-18
6.588741e-11	 4.139972e-10	 -3.865176e-11
-6.588759e-11	 -4.139975e-10	 -3.865175e-11
0	 0	 7.114993e-12
-1.708751e-10	 -3.449950e-12	 5.196565e-12
-2.439669e-16	 7.933781e-16	 -7.114945e-12
0	 0	 7.114805e-12
-9.483310e-17	 -2.070595e-16	 -5.480997e-11
0	 0	 5.480999e-11
-6.588754e-11	 -4.139974e-10	 3.865177e-11
0	 0	 5.480996e-11
-1.708753e-10	 -3.449518e-12	 -5.196488e-12
1.708749e-10	 3.450562e-12	 5.196391e-12
2.426160e-10	 1.018271e-11	 -8.918582e-17
7.824735e-11	 5.533526e-10	 -1.291560e-17
0	 0	 9.500189e-12
-2.191336e-10	 -1.190998e-12	 5.145119e-17
2.191332e-10	 1.192113e-12	 -9.714464e-17
0	 0	 9.499978e-12
0	 0	 7.177245e-11
9.154965e-11	 5.464871e-10	 -1.504312e-17
0	 0	 7.177242e-11
-9.154976e-11	 -5.464874e-10	 1.168888e-17
-2.541606e-16	 7.881822e-16	 -9.500129e-12
-8.243006e-17	 -2.116142e-16	 -7.177244e-11
-1.370146e-10	 9.629374e-12	 8.005751e-12
-8.562255e-11	 -4.044689e-10	 5.763562e-11
1.047165e-10	 5.390542e-10	 -1.718905e-17
8.562249e-11	 4.044687e-10	 5.763558e-11
0	 0	 1.190761e-11
-1.955063e-10	 7.705383e-12	 5.943732e-17
-2.643199e-16	 7.824641e-16	 -1.190754e-11
1.370143e-10	 -9.628344e-12	 -8.005734e-12
1.955059e-10	 -7.704276e-12	 -1.051279e-16
1.370144e-10	 -9.628771e-12	 8.005538e-12
0	 0	 1.190738e-11
0	 0	 8.881286e-11
-1.047166e-10	 -5.390546e-10	 1.383710e-17
-6.979558e-17	 -2.159262e-16	 -8.881284e-11
8.562245e-11	 4.044686e-10	 -5.763561e-11
0	 0	 8.881281e-11
-1.370148e-10	 9.629801e-12	 -8.005646e-12
-8.562258e-11	 -4.044690e-10	 -5.763560e-11
0	 0	 1.899440e-11
-1.001914e-16	 6.010010e-16	 -1.899438e-11
4.136719e-10	 -2.753725e-10	 -6.094390e-17
0	 0	 1.899428e-11