# vtk DataFile Version 3.0
Unstructured Grid Example
ASCII
DATASET UNSTRUCTURED_GRID
POINTS 832 float
-1	 0	 0
-1	 0	 3.750000e-01
-1	 0	 7.500000e-01
-1	 0	 1.125000e+00
-1	 0	 1.500000e+00
-1	 0	 1.875000e+00
-1	 0	 2.250000e+00
-1	 0	 2.625000e+00
-1	 0	 3
-9.875000e-01	 0	 0
-9.875000e-01	 0	 1.500000e+00
-9.875000e-01	 0	 3
-9.875000e-01	 0	 2.250000e+00
-9.875000e-01	 0	 7.500000e-01
-9.833054e-01	 -1.819631e-01	 7.500000e-01
-9.833054e-01	 -1.819631e-01	 0
-9.833054e-01	 -1.819631e-01	 1.500000e+00
-9.833054e-01	 -1.819631e-01	 3.000000e+00
-9.833054e-01	 1.819631e-01	 2.250000e+00
-9.833054e-01	 1.819631e-01	 0
-9.833054e-01	 1.819631e-01	 1.500000e+00
-9.833054e-01	 1.819631e-01	 3.000000e+00
-9.833054e-01	 1.819631e-01	 7.500000e-01
-9.833054e-01	 -1.819631e-01	 2.250000e+00
-9.750000e-01	 0	 7.500000e-01
-9.750000e-01	 0	 1.125000e+00
-9.750000e-01	 0	 0
-9.750000e-01	 0	 3.750000e-01
-9.750000e-01	 0	 1.875000e+00
-9.750000e-01	 0	 2.625000e+00
-9.750000e-01	 0	 3
-9.750000e-01	 0	 1.500000e+00
-9.750000e-01	 0	 2.250000e+00
-9.625000e-01	 0	 1.500000e+00
-9.625000e-01	 0	 2.250000e+00
-9.625000e-01	 0	 0
-9.625000e-01	 0	 7.500000e-01
-9.625000e-01	 0	 3
-9.587227e-01	 -1.774140e-01	 0
-9.587227e-01	 -1.774140e-01	 3.000000e+00
-9.587227e-01	 -1.774140e-01	 1.500000e+00
-9.587227e-01	 1.774140e-01	 0
-9.587227e-01	 1.774140e-01	 3.000000e+00
-9.587227e-01	 1.774140e-01	 1.500000e+00
-9.587227e-01	 1.774140e-01	 7.500000e-01
-9.587227e-01	 -1.774140e-01	 7.500000e-01
-9.587227e-01	 -1.774140e-01	 2.250000e+00
-9.587227e-01	 1.774140e-01	 2.250000e+00
-9.500000e-01	 0	 0
-9.500000e-01	 0	 3.750000e-01
-9.500000e-01	 0	 1.125000e+00
-9.500000e-01	 0	 1.500000e+00
-9.500000e-01	 0	 1.875000e+00
-9.500000e-01	 0	 2.250000e+00
-9.500000e-01	 0	 2.625000e+00
-9.500000e-01	 0	 3
-9.500000e-01	 0	 7.500000e-01
-9.341401e-01	 -1.728649e-01	 1.500000e+00
-9.341401e-01	 -1.728649e-01	 0
-9.341401e-01	 -1.728649e-01	 3.000000e+00
-9.341401e-01	 1.728649e-01	 2.250000e+00
-9.341401e-01	 1.728649e-01	 0
-9.341401e-01	 1.728649e-01	 1.500000e+00
-9.341401e-01	 1.728649e-01	 3.000000e+00
-9.341401e-01	 -1.728649e-01	 7.500000e-01
-9.341401e-01	 -1.728649e-01	 2.250000e+00
-9.341401e-01	 1.728649e-01	 7.500000e-01
-9.297883e-01	 -3.680947e-01	 1.125000e+00
-9.297883e-01	 -3.680947e-01	 0
-9.297883e-01	 -3.680947e-01	 7.500000e-01
-9.297883e-01	 -3.680947e-01	 1.500000e+00
-9.297883e-01	 -3.680947e-01	 1.875000e+00
-9.297883e-01	 -3.680947e-01	 2.250000e+00
-9.297883e-01	 -3.680947e-01	 2.625000e+00
-9.297883e-01	 -3.680947e-01	 3.000000e+00
-9.297883e-01	 -3.680947e-01	 3.750000e-01
-9.297883e-01	 3.680947e-01	 3.750000e-01
-9.297883e-01	 3.680947e-01	 2.250000e+00
-9.297883e-01	 3.680947e-01	 2.625000e+00
-9.297883e-01	 3.680947e-01	 0
-9.297883e-01	 3.680947e-01	 7.500000e-01
-9.297883e-01	 3.680947e-01	 1.500000e+00
-9.297883e-01	 3.680947e-01	 1.875000e+00
-9.297883e-01	 3.680947e-01	 3.000000e+00
-9.297883e-01	 3.680947e-01	 1.125000e+00
-9.181659e-01	 3.634935e-01	 7.500000e-01
-9.181659e-01	 -3.634935e-01	 0
-9.181659e-01	 -3.634935e-01	 7.500000e-01
-9.181659e-01	 -3.634935e-01	 2.250000e+00
-9.181659e-01	 -3.634935e-01	 3
-9.181659e-01	 3.634935e-01	 0
-9.181659e-01	 3.634935e-01	 2.250000e+00
-9.181659e-01	 3.634935e-01	 3
-9.181659e-01	 -3.634935e-01	 1.500000e+00
-9.181659e-01	 3.634935e-01	 1.500000e+00
-9.065436e-01	 -3.588923e-01	 1.125000e+00
-9.065436e-01	 -3.588923e-01	 2.625000e+00
-9.065436e-01	 -3.588923e-01	 0
-9.065436e-01	 -3.588923e-01	 3.750000e-01
-9.065436e-01	 -3.588923e-01	 1.500000e+00
-9.065436e-01	 -3.588923e-01	 3
-9.065436e-01	 3.588923e-01	 2.625000e+00
-9.065436e-01	 3.588923e-01	 1.125000e+00
-9.065436e-01	 3.588923e-01	 0
-9.065436e-01	 3.588923e-01	 3.750000e-01
-9.065436e-01	 3.588923e-01	 3
-9.065436e-01	 -3.588923e-01	 7.500000e-01
-9.065436e-01	 -3.588923e-01	 1.875000e+00
-9.065436e-01	 3.588923e-01	 1.875000e+00
-9.065436e-01	 3.588923e-01	 1.500000e+00
-9.065436e-01	 -3.588923e-01	 2.250000e+00
-9.065436e-01	 3.588923e-01	 7.500000e-01
-9.065436e-01	 3.588923e-01	 2.250000e+00
-8.949212e-01	 3.542912e-01	 1.500000e+00
-8.949212e-01	 -3.542912e-01	 1.500000e+00
-8.949212e-01	 -3.542912e-01	 0
-8.949212e-01	 -3.542912e-01	 3.000000e+00
-8.949212e-01	 3.542912e-01	 0
-8.949212e-01	 3.542912e-01	 3.000000e+00
-8.949212e-01	 -3.542912e-01	 2.250000e+00
-8.949212e-01	 -3.542912e-01	 7.500000e-01
-8.949212e-01	 3.542912e-01	 2.250000e+00
-8.949212e-01	 3.542912e-01	 7.500000e-01
-8.832989e-01	 -3.496900e-01	 1.125000e+00
-8.832989e-01	 -3.496900e-01	 1.875000e+00
-8.832989e-01	 -3.496900e-01	 2.625000e+00
-8.832989e-01	 -3.496900e-01	 2.250000e+00
-8.832989e-01	 3.496900e-01	 1.125000e+00
-8.832989e-01	 -3.496900e-01	 0
-8.832989e-01	 -3.496900e-01	 3.000000e+00
-8.832989e-01	 -3.496900e-01	 3.750000e-01
-8.832989e-01	 -3.496900e-01	 7.500000e-01
-8.832989e-01	 3.496900e-01	 3.750000e-01
-8.832989e-01	 3.496900e-01	 7.500000e-01
-8.832989e-01	 3.496900e-01	 2.250000e+00
-8.832989e-01	 3.496900e-01	 2.625000e+00
-8.832989e-01	 3.496900e-01	 0
-8.832989e-01	 3.496900e-01	 1.875000e+00
-8.832989e-01	 3.496900e-01	 3.000000e+00
-8.832989e-01	 -3.496900e-01	 1.500000e+00
-8.832989e-01	 3.496900e-01	 1.500000e+00
-8.369955e-01	 -5.472098e-01	 0
-8.369955e-01	 -5.472098e-01	 7.500000e-01
-8.369955e-01	 -5.472098e-01	 1.500000e+00
-8.369955e-01	 -5.472098e-01	 2.250000e+00
-8.369955e-01	 -5.472098e-01	 3
-8.369955e-01	 5.472098e-01	 0
-8.369955e-01	 5.472098e-01	 7.500000e-01
-8.369955e-01	 5.472098e-01	 1.500000e+00
-8.369955e-01	 5.472098e-01	 2.250000e+00
-8.369955e-01	 5.472098e-01	 3
-8.160706e-01	 -5.335295e-01	 7.500000e-01
-8.160706e-01	 5.335295e-01	 7.500000e-01
-8.160706e-01	 -5.335295e-01	 1.500000e+00
-8.160706e-01	 -5.335295e-01	 2.250000e+00
-8.160706e-01	 5.335295e-01	 1.500000e+00
-8.160706e-01	 5.335295e-01	 2.250000e+00
-8.160706e-01	 -5.335295e-01	 0
-8.160706e-01	 -5.335295e-01	 3.000000e+00
-8.160706e-01	 5.335295e-01	 0
-8.160706e-01	 5.335295e-01	 3.000000e+00
-7.951457e-01	 -5.198493e-01	 7.500000e-01
-7.951457e-01	 5.198493e-01	 7.500000e-01
-7.951457e-01	 -5.198493e-01	 0
-7.951457e-01	 -5.198493e-01	 1.500000e+00
-7.951457e-01	 -5.198493e-01	 2.250000e+00
-7.951457e-01	 -5.198493e-01	 3
-7.951457e-01	 5.198493e-01	 0
-7.951457e-01	 5.198493e-01	 1.500000e+00
-7.951457e-01	 5.198493e-01	 2.250000e+00
-7.951457e-01	 5.198493e-01	 3
-7.071068e-01	 -7.071068e-01	 0
-7.071068e-01	 -7.071068e-01	 3.750000e-01
-7.071068e-01	 -7.071068e-01	 7.500000e-01
-7.071068e-01	 -7.071068e-01	 1.125000e+00
-7.071068e-01	 -7.071068e-01	 1.500000e+00
-7.071068e-01	 -7.071068e-01	 1.875000e+00
-7.071068e-01	 -7.071068e-01	 2.250000e+00
-7.071068e-01	 -7.071068e-01	 2.625000e+00
-7.071068e-01	 -7.071068e-01	 3.000000e+00
-7.071068e-01	 7.071068e-01	 0
-7.071068e-01	 7.071068e-01	 3.750000e-01
-7.071068e-01	 7.071068e-01	 7.500000e-01
-7.071068e-01	 7.071068e-01	 1.125000e+00
-7.071068e-01	 7.071068e-01	 1.500000e+00
-7.071068e-01	 7.071068e-01	 1.875000e+00
-7.071068e-01	 7.071068e-01	 2.250000e+00
-7.071068e-01	 7.071068e-01	 2.625000e+00
-7.071068e-01	 7.071068e-01	 3.000000e+00
-6.982679e-01	 -6.982679e-01	 7.500000e-01
-6.982679e-01	 6.982679e-01	 7.500000e-01
-6.982679e-01	 -6.982679e-01	 0
-6.982679e-01	 -6.982679e-01	 2.250000e+00
-6.982679e-01	 -6.982679e-01	 3.000000e+00
-6.982679e-01	 6.982679e-01	 0
-6.982679e-01	 6.982679e-01	 2.250000e+00
-6.982679e-01	 6.982679e-01	 3.000000e+00
-6.982679e-01	 -6.982679e-01	 1.500000e+00
-6.982679e-01	 6.982679e-01	 1.500000e+00
-6.894291e-01	 -6.894291e-01	 3.750000e-01
-6.894291e-01	 -6.894291e-01	 2.625000e+00
-6.894291e-01	 -6.894291e-01	 0
-6.894291e-01	 -6.894291e-01	 1.500000e+00
-6.894291e-01	 -6.894291e-01	 2.250000e+00
-6.894291e-01	 -6.894291e-01	 3.000000e+00
-6.894291e-01	 6.894291e-01	 3.750000e-01
-6.894291e-01	 6.894291e-01	 2.625000e+00
-6.894291e-01	 -6.894291e-01	 1.875000e+00
-6.894291e-01	 6.894291e-01	 1.875000e+00
-6.894291e-01	 -6.894291e-01	 7.500000e-01
-6.894291e-01	 -6.894291e-01	 1.125000e+00
-6.894291e-01	 6.894291e-01	 0
-6.894291e-01	 6.894291e-01	 1.500000e+00
-6.894291e-01	 6.894291e-01	 2.250000e+00
-6.894291e-01	 6.894291e-01	 3.000000e+00
-6.894291e-01	 6.894291e-01	 7.500000e-01
-6.894291e-01	 6.894291e-01	 1.125000e+00
-6.805903e-01	 6.805903e-01	 7.500000e-01
-6.805903e-01	 -6.805903e-01	 7.500000e-01
-6.805903e-01	 -6.805903e-01	 0
-6.805903e-01	 -6.805903e-01	 1.500000e+00
-6.805903e-01	 -6.805903e-01	 3.000000e+00
-6.805903e-01	 6.805903e-01	 0
-6.805903e-01	 6.805903e-01	 1.500000e+00
-6.805903e-01	 6.805903e-01	 3.000000e+00
-6.805903e-01	 6.805903e-01	 2.250000e+00
-6.805903e-01	 -6.805903e-01	 2.250000e+00
-6.717514e-01	 -6.717514e-01	 2.625000e+00
-6.717514e-01	 6.717514e-01	 2.625000e+00
-6.717514e-01	 -6.717514e-01	 0
-6.717514e-01	 -6.717514e-01	 3.750000e-01
-6.717514e-01	 -6.717514e-01	 7.500000e-01
-6.717514e-01	 -6.717514e-01	 1.125000e+00
-6.717514e-01	 -6.717514e-01	 1.875000e+00
-6.717514e-01	 -6.717514e-01	 3.000000e+00
-6.717514e-01	 -6.717514e-01	 2.250000e+00
-6.717514e-01	 6.717514e-01	 1.500000e+00
-6.717514e-01	 6.717514e-01	 0
-6.717514e-01	 6.717514e-01	 3.750000e-01
-6.717514e-01	 6.717514e-01	 7.500000e-01
-6.717514e-01	 6.717514e-01	 1.125000e+00
-6.717514e-01	 6.717514e-01	 1.875000e+00
-6.717514e-01	 6.717514e-01	 3.000000e+00
-6.717514e-01	 -6.717514e-01	 1.500000e+00
-6.717514e-01	 6.717514e-01	 2.250000e+00
-5.472098e-01	 -8.369955e-01	 0
-5.472098e-01	 -8.369955e-01	 7.500000e-01
-5.472098e-01	 -8.369955e-01	 1.500000e+00
-5.472098e-01	 -8.369955e-01	 2.250000e+00
-5.472098e-01	 -8.369955e-01	 3
-5.472098e-01	 8.369955e-01	 0
-5.472098e-01	 8.369955e-01	 7.500000e-01
-5.472098e-01	 8.369955e-01	 1.500000e+00
-5.472098e-01	 8.369955e-01	 2.250000e+00
-5.472098e-01	 8.369955e-01	 3
-5.335295e-01	 -8.160706e-01	 1.500000e+00
-5.335295e-01	 -8.160706e-01	 2.250000e+00
-5.335295e-01	 8.160706e-01	 0
-5.335295e-01	 8.160706e-01	 3.000000e+00
[...]
POINT_DATA 832
VECTORS displacement float
0	 0	 3.296027e-07
1.091774e-06	 -2.801005e-07	 3.016183e-07
1.998531e-06	 -5.211780e-07	 2.330642e-07
2.635774e-06	 -6.762231e-07	 1.249342e-07
2.826347e-06	 -7.370580e-07	 -2.362048e-13
2.635772e-06	 -6.762241e-07	 -1.249345e-07
1.998528e-06	 -5.211795e-07	 -2.330642e-07
1.091772e-06	 -2.801015e-07	 -3.016180e-07
0	 0	 -3.296022e-07
0	 0	 2.909527e-07
2.832428e-06	 -8.391268e-07	 -1.897124e-13
0	 0	 -2.909524e-07
2.002828e-06	 -5.933531e-07	 -2.057345e-07
2.002831e-06	 -5.933514e-07	 2.057345e-07
8.129657e-07	 -5.945053e-07	 8.257350e-08
0	 0	 1.167770e-07
1.149703e-06	 -8.407588e-07	 -4.444391e-13
0	 0	 -1.167761e-07
2.647748e-06	 -6.602026e-07	 -3.209967e-07
0	 0	 4.539579e-07
3.744481e-06	 -9.336663e-07	 3.795682e-14
0	 0	 -4.539580e-07
2.647747e-06	 -6.602010e-07	 3.209967e-07
8.129603e-07	 -5.945072e-07	 -8.257349e-08
2.005596e-06	 -6.652419e-07	 1.785208e-07
2.643509e-06	 -8.652927e-07	 9.716243e-08
0	 0	 2.524667e-07
1.094978e-06	 -3.584156e-07	 2.345712e-07
2.643507e-06	 -8.652940e-07	 -9.716263e-08
1.094976e-06	 -3.584169e-07	 -2.345710e-07
0	 0	 -2.524664e-07
2.836338e-06	 -9.407954e-07	 -1.435275e-13
2.005593e-06	 -6.652438e-07	 -1.785208e-07
2.839136e-06	 -1.041461e-06	 -9.725596e-14
2.007571e-06	 -7.364255e-07	 -1.512558e-07
0	 0	 2.139081e-07
2.007574e-06	 -7.364234e-07	 1.512558e-07
0	 0	 -2.139079e-07
0	 0	 9.040697e-08
0	 0	 -9.040640e-08
1.196978e-06	 -1.089208e-06	 -2.759495e-13
0	 0	 3.496384e-07
0	 0	 -3.496384e-07
3.740460e-06	 -9.799367e-07	 2.270308e-14
2.644905e-06	 -6.929188e-07	 2.472317e-07
8.463939e-07	 -7.701852e-07	 6.392718e-08
8.463885e-07	 -7.701872e-07	 -6.392717e-08
2.644905e-06	 -6.929209e-07	 -2.472317e-07
0	 0	 1.751639e-07
1.095427e-06	 -4.361323e-07	 1.673553e-07
2.644594e-06	 -1.052918e-06	 6.932076e-08
2.839433e-06	 -1.142819e-06	 -5.058229e-14
2.644591e-06	 -1.052919e-06	 -6.932085e-08
2.007781e-06	 -8.080959e-07	 -1.238595e-07
1.095425e-06	 -4.361339e-07	 -1.673552e-07
0	 0	 -1.751637e-07
2.007784e-06	 -8.080936e-07	 1.238595e-07
1.242222e-06	 -1.340026e-06	 -1.073328e-13
0	 0	 6.409468e-08
0	 0	 -6.409445e-08
2.634588e-06	 -7.244242e-07	 -1.734977e-07
0	 0	 2.453628e-07
3.725870e-06	 -1.024489e-06	 7.319428e-15
0	 0	 -2.453628e-07
8.783864e-07	 -9.475402e-07	 4.532170e-08
8.783811e-07	 -9.475424e-07	 -4.532170e-08
2.634588e-06	 -7.244216e-07	 1.734977e-07
-7.865715e-07	 -1.302436e-06	 -5.708995e-08
0	 0	 -1.506411e-07
-5.920353e-07	 -9.974564e-07	 -1.065197e-07
-8.372681e-07	 -1.410618e-06	 -4.691869e-13
-7.865757e-07	 -1.302438e-06	 5.708934e-08
-5.920407e-07	 -9.974585e-07	 1.065197e-07
-3.258115e-07	 -5.394878e-07	 1.378269e-07
0	 0	 1.506421e-07
-3.258074e-07	 -5.394862e-07	 -1.378263e-07
1.336962e-06	 -3.785217e-07	 3.877708e-07
2.448558e-06	 -6.877131e-07	 -2.998928e-07
1.336964e-06	 -3.785236e-07	 -3.877712e-07
0	 0	 4.241121e-07
2.448555e-06	 -6.877104e-07	 2.998928e-07
3.462782e-06	 -9.725713e-07	 3.187649e-13
3.227715e-06	 -9.138355e-07	 -1.606198e-07
0	 0	 -4.241128e-07
3.227712e-06	 -9.138335e-07	 1.606202e-07
2.466979e-06	 -6.550987e-07	 2.652202e-07
0	 0	 -1.328620e-07
-5.583768e-07	 -1.088575e-06	 -9.394792e-08
-5.583823e-07	 -1.088577e-06	 9.394793e-08
0	 0	 1.328628e-07
0	 0	 3.750778e-07
2.466982e-06	 -6.551016e-07	 -2.652202e-07
0	 0	 -3.750783e-07
-7.896680e-07	 -1.539479e-06	 -3.776801e-13
3.488838e-06	 -9.264515e-07	 2.573131e-13
-6.972068e-07	 -1.539338e-06	 -4.435011e-08
-2.887955e-07	 -6.376156e-07	 1.070704e-07
0	 0	 -1.151648e-07
-2.887913e-07	 -6.376140e-07	 -1.070700e-07
-7.412532e-07	 -1.667493e-06	 -2.866556e-13
0	 0	 1.151654e-07
1.355448e-06	 -3.422972e-07	 -3.029000e-07
3.272338e-06	 -8.263748e-07	 1.254654e-07
0	 0	 3.262133e-07
1.355446e-06	 -3.422950e-07	 3.028997e-07
0	 0	 -3.262136e-07
-5.241424e-07	 -1.179095e-06	 -8.143403e-08
-6.972110e-07	 -1.539339e-06	 4.434971e-08
3.272340e-06	 -8.263770e-07	 -1.254651e-07
3.512619e-06	 -8.796486e-07	 1.962091e-13
-5.241480e-07	 -1.179097e-06	 8.143403e-08
2.483795e-06	 -6.220040e-07	 2.306677e-07
2.483798e-06	 -6.220070e-07	 -2.306677e-07
3.535292e-06	 -8.331073e-07	 1.350659e-13
-6.929457e-07	 -1.794130e-06	 -1.955060e-13
0	 0	 -9.746967e-08
0	 0	 9.747008e-08
0	 0	 2.772691e-07
0	 0	 -2.772693e-07
-4.899894e-07	 -1.268643e-06	 6.892161e-08
-4.899838e-07	 -1.268641e-06	 -6.892161e-08
2.499830e-06	 -5.890974e-07	 -1.960589e-07
2.499827e-06	 -5.890942e-07	 1.960589e-07
-6.057125e-07	 -1.773343e-06	 -3.160569e-08
-6.057167e-07	 -1.773345e-06	 3.160550e-08
-2.508973e-07	 -7.345439e-07	 7.630276e-08
-4.548050e-07	 -1.358409e-06	 5.634588e-08
3.310251e-06	 -7.372356e-07	 9.022001e-08
0	 0	 -7.968499e-08
0	 0	 7.968521e-08
-2.508931e-07	 -7.345424e-07	 -7.630254e-08
-4.547994e-07	 -1.358407e-06	 -5.634587e-08
1.371150e-06	 -3.053723e-07	 2.178102e-07
2.514166e-06	 -5.551797e-07	 1.612971e-07
2.514169e-06	 -5.551831e-07	 -1.612971e-07
1.371152e-06	 -3.053747e-07	 -2.178103e-07
0	 0	 2.281085e-07
3.310253e-06	 -7.372381e-07	 -9.021987e-08
0	 0	 -2.281086e-07
-6.431874e-07	 -1.921080e-06	 -1.036322e-13
3.555570e-06	 -7.851451e-07	 7.341533e-14
0	 0	 -3.775430e-07
-1.641450e-06	 -1.607323e-06	 -2.669635e-07
-2.321364e-06	 -2.273100e-06	 -3.526306e-13
-1.641454e-06	 -1.607325e-06	 2.669635e-07
0	 0	 3.775437e-07
0	 0	 2.637216e-07
1.636713e-06	 -3.333117e-07	 1.864797e-07
2.314665e-06	 -4.713766e-07	 5.163988e-13
1.636718e-06	 -3.333156e-07	 -1.864797e-07
0	 0	 -2.637227e-07
-1.587390e-06	 -1.694085e-06	 -2.059994e-07
1.717170e-06	 -2.132732e-07	 1.444480e-07
-2.244912e-06	 -2.395799e-06	 -2.211863e-13
-1.587394e-06	 -1.694086e-06	 2.059994e-07
2.428449e-06	 -3.016167e-07	 3.262092e-13
1.717175e-06	 -2.132772e-07	 -1.444480e-07
0	 0	 -2.913269e-07
0	 0	 2.913274e-07
0	 0	 2.042799e-07
0	 0	 -2.042806e-07
-1.527778e-06	 -1.778090e-06	 -1.450525e-07
1.794830e-06	 -9.010454e-08	 1.024461e-07
0	 0	 -2.051352e-07
-2.160608e-06	 -2.514599e-06	 -8.963934e-14
-1.527783e-06	 -1.778091e-06	 1.450525e-07
0	 0	 2.051354e-07
0	 0	 1.448805e-07
2.538277e-06	 -1.274300e-07	 1.358063e-13
1.794835e-06	 -9.010863e-08	 -1.024461e-07
0	 0	 -1.448808e-07
0	 0	 -4.554177e-07
-1.049335e-06	 -1.056953e-06	 -4.167375e-07
-1.919569e-06	 -1.933722e-06	 -3.220290e-07
-2.533320e-06	 -2.551709e-06	 -1.726184e-07
-2.714681e-06	 -2.734696e-06	 -8.081918e-14
-2.533321e-06	 -2.551709e-06	 1.726183e-07
-1.919570e-06	 -1.933722e-06	 3.220290e-07
-1.049336e-06	 -1.056952e-06	 4.167376e-07
0	 0	 4.554179e-07
0	 0	 -5.263085e-09
2.707477e-07	 2.952442e-07	 -4.814768e-09
5.039363e-07	 5.487494e-07	 -3.721217e-09
6.536451e-07	 7.127804e-07	 -1.993889e-09
7.126768e-07	 7.760461e-07	 4.927900e-13
6.536486e-07	 7.127775e-07	 1.994535e-09
5.039409e-07	 5.487455e-07	 3.721225e-09
2.707511e-07	 2.952413e-07	 4.814140e-09
0	 0	 5.262117e-09
-1.922684e-06	 -1.938798e-06	 -2.847385e-07
5.743137e-07	 6.192196e-07	 -3.286734e-09
0	 0	 -4.026810e-07
-1.922686e-06	 -1.938797e-06	 2.847385e-07
0	 0	 4.026812e-07
0	 0	 -4.648541e-09
5.743184e-07	 6.192158e-07	 3.286743e-09
0	 0	 4.647760e-09
-2.719087e-06	 -2.741874e-06	 -6.466099e-14
8.122055e-07	 8.757061e-07	 3.992574e-13
-1.051358e-06	 -1.061085e-06	 -3.252453e-07
-1.051359e-06	 -1.061085e-06	 3.252453e-07
0	 0	 -3.501283e-07
-2.721684e-06	 -2.747229e-06	 -4.853379e-14
-1.924522e-06	 -1.942584e-06	 2.475782e-07
0	 0	 3.501284e-07
3.467427e-07	 3.713103e-07	 -3.751623e-09
3.467462e-07	 3.713074e-07	 3.751205e-09
-2.538205e-06	 -2.561686e-06	 1.347210e-07
8.371170e-07	 8.964175e-07	 1.554104e-09
-1.924520e-06	 -1.942585e-06	 -2.475781e-07
-2.538204e-06	 -2.561686e-06	 -1.347210e-07
0	 0	 -4.035915e-09
9.113994e-07	 9.749926e-07	 3.061405e-13
6.444591e-07	 6.894220e-07	 2.853617e-09
0	 0	 4.035320e-09
6.444544e-07	 6.894257e-07	 -2.853608e-09
8.371134e-07	 8.964203e-07	 -1.553669e-09
7.139449e-07	 7.589693e-07	 -2.419979e-09
-1.925846e-06	 -1.945844e-06	 -2.103742e-07
0	 0	 -2.975140e-07
-2.723559e-06	 -2.751839e-06	 -3.238386e-14
0	 0	 2.975141e-07
0	 0	 -3.422578e-09
1.009674e-06	 1.073342e-06	 2.129273e-13
0	 0	 3.422170e-09
7.139497e-07	 7.589656e-07	 2.419988e-09
-1.925848e-06	 -1.945843e-06	 2.103742e-07
-1.051206e-06	 -1.063026e-06	 2.335548e-07
4.221993e-07	 4.467836e-07	 2.686027e-09
0	 0	 -2.446648e-07
-1.051205e-06	 -1.063026e-06	 -2.335547e-07
-1.925671e-06	 -1.947614e-06	 -1.730041e-07
-2.537834e-06	 -2.566372e-06	 -9.674156e-08
-2.537836e-06	 -2.566372e-06	 9.674153e-08
0	 0	 2.446648e-07
-1.925673e-06	 -1.947614e-06	 1.730042e-07
1.108517e-06	 1.172216e-06	 1.190273e-13
0	 0	 -2.806746e-09
4.221957e-07	 4.467863e-07	 -2.686235e-09
7.838374e-07	 8.288835e-07	 -1.984587e-09
1.019273e-06	 1.078636e-06	 -1.112519e-09
1.019277e-06	 1.078633e-06	 1.112744e-09
0	 0	 2.806526e-09
-2.723312e-06	 -2.754342e-06	 -1.614775e-14
7.838423e-07	 8.288799e-07	 1.984596e-09
0	 0	 -3.846751e-07
-1.616973e-06	 -1.686553e-06	 -2.720062e-07
-2.286746e-06	 -2.385144e-06	 2.067327e-13
-1.616973e-06	 -1.686550e-06	 2.720062e-07
0	 0	 3.846747e-07
0	 0	 -2.725320e-07
-3.713346e-07	 1.675820e-06	 -1.927090e-07
-5.251441e-07	 2.369966e-06	 3.302340e-13
-3.713313e-07	 1.675817e-06	 1.927090e-07
0	 0	 2.725313e-07
-2.405004e-06	 -2.311676e-06	 1.325557e-13
-1.700594e-06	 -1.634601e-06	 2.098816e-07
0	 0	 -2.110389e-07
0	 0	 2.110385e-07
-3.580198e-07	 2.482109e-06	 2.101366e-13
-2.531565e-07	 1.755115e-06	 1.492269e-07
-1.700594e-06	 -1.634604e-06	 -2.098816e-07
0	 0	 -2.968175e-07
0	 0	 2.968172e-07
-2.531600e-07	 1.755117e-06	 -1.492269e-07
-1.317920e-07	 1.831493e-06	 -1.057751e-07
-1.781363e-06	 -1.577010e-06	 -1.477751e-07
0	 0	 -2.089856e-07
-2.519228e-06	 -2.230226e-06	 5.839912e-14
-1.781364e-06	 -1.577006e-06	 1.477751e-07
0	 0	 2.089855e-07
0	 0	 -1.495886e-07
-1.863794e-07	 2.590120e-06	 8.985138e-14
-1.317882e-07	 1.831491e-06	 1.057751e-07
0	 0	 1.495885e-07
-1.326238e-06	 -8.723871e-07	 -6.130770e-08
-9.459493e-07	 3.249128e-06	 -1.619721e-07
0	 0	 -1.617765e-07
-1.015362e-06	 -6.571375e-07	 -1.143930e-07
-1.435937e-06	 -9.293296e-07	 3.815384e-13
-1.326238e-06	 -8.723837e-07	 6.130820e-08
0	 0	 1.617758e-07
0	 0	 -4.276829e-07
-7.123047e-07	 2.464676e-06	 -3.024175e-07
-1.007350e-06	 3.485578e-06	 4.632374e-14
-9.459480e-07	 3.249128e-06	 1.619721e-07
-7.123029e-07	 2.464676e-06	 3.024175e-07
-3.918241e-07	 1.345833e-06	 3.910352e-07
0	 0	 4.276829e-07
-5.493462e-07	 -3.613556e-07	 -1.480107e-07
-1.015360e-06	 -6.571330e-07	 1.143930e-07
-5.493453e-07	 -3.613522e-07	 1.480102e-07
-3.918254e-07	 1.345833e-06	 -3.910352e-07
-1.563856e-06	 -8.823163e-07	 3.089212e-13
-9.641009e-07	 3.510588e-06	 3.829354e-14
-1.105814e-06	 -6.238941e-07	 -1.009034e-07
0	 0	 -1.426992e-07
-1.105813e-06	 -6.238895e-07	 1.009034e-07
0	 0	 1.426986e-07
0	 0	 -3.781836e-07
-6.817233e-07	 2.482360e-06	 -2.674162e-07
-6.817212e-07	 2.482360e-06	 2.674162e-07
0	 0	 3.781836e-07
-1.195650e-06	 -5.900242e-07	 8.747520e-08
-6.506447e-07	 2.498417e-06	 2.325367e-07
-8.637804e-07	 3.291771e-06	 -1.264832e-07
-3.577884e-07	 1.363496e-06	 3.053575e-07
0	 0	 -1.237088e-07
-6.467224e-07	 -3.247483e-07	 -1.150001e-07
0	 0	 1.237084e-07
-1.690905e-06	 -8.344235e-07	 2.366953e-13
0	 0	 -3.288566e-07
-3.577900e-07	 1.363496e-06	 -3.053575e-07
-9.201522e-07	 3.533296e-06	 3.029667e-14
0	 0	 3.288566e-07
-1.561325e-06	 -7.840094e-07	 -4.763437e-08
-1.561325e-06	 -7.840059e-07	 4.763471e-08
-1.195651e-06	 -5.900288e-07	 -8.747519e-08
-6.506470e-07	 2.498417e-06	 -2.325367e-07
-8.637788e-07	 3.291771e-06	 1.264832e-07
-6.467217e-07	 -3.247449e-07	 1.149998e-07
-1.816582e-06	 -7.866095e-07	 1.643617e-13
-1.284517e-06	 -5.562146e-07	 7.404703e-08
-6.197299e-07	 2.513692e-06	 1.976009e-07
0	 0	 -2.794499e-07
0	 0	 2.794498e-07
-8.764321e-07	 3.554898e-06	 2.233740e-14
0	 0	 -1.047185e-07
0	 0	 1.047182e-07
-1.284518e-06	 -5.562193e-07	 -7.404702e-08
-6.197323e-07	 2.513692e-06	 -1.976009e-07
-1.793464e-06	 -6.933139e-07	 -3.395407e-08
0	 0	 -8.563226e-08
-1.793464e-06	 -6.933104e-07	 3.395424e-08
0	 0	 8.563210e-08
-1.942532e-06	 -7.372726e-07	 9.145232e-14
0	 0	 -2.298241e-07
0	 0	 2.298241e-07
-7.798597e-07	 3.327639e-06	 -9.090360e-08
-7.798578e-07	 3.327639e-06	 9.090363e-08
-3.230271e-07	 1.378353e-06	 2.194607e-07
-7.428774e-07	 -2.871811e-07	 -8.197265e-08
-1.373578e-06	 -5.213329e-07	 -6.055109e-08
-1.373577e-06	 -5.213281e-07	 6.055110e-08
-7.428768e-07	 -2.871775e-07	 8.197250e-08
-8.312931e-07	 3.574065e-06	 1.433459e-14
-3.230290e-07	 1.378353e-06	 -2.194607e-07
-5.878117e-07	 2.527246e-06	 1.625102e-07
-5.878143e-07	 2.527245e-06	 -1.625102e-07
-6.107276e-07	 7.457709e-07	 7.435085e-08
-6.750430e-07	 2.631199e-06	 -3.190059e-07
0	 0	 1.051475e-07
-8.636985e-07	 1.054683e-06	 4.374066e-13
0	 0	 -1.051484e-07
0	 0	 -4.511423e-07
-9.546543e-07	 3.721080e-06	 -2.376058e-13
0	 0	 4.511428e-07
-6.107265e-07	 7.457762e-07	 -7.435084e-08
-6.750421e-07	 2.631203e-06	 3.190059e-07
-7.876722e-07	 7.793497e-07	 5.757334e-08
0	 0	 8.142072e-08
0	 0	 -8.142125e-08
-7.120851e-07	 2.627538e-06	 -2.456122e-07
-7.120838e-07	 2.627542e-06	 2.456122e-07
0	 0	 -3.473479e-07
0	 0	 3.473482e-07
-7.876710e-07	 7.793550e-07	 -5.757333e-08
-1.007039e-06	 3.715903e-06	 -1.480784e-13
-1.113936e-06	 1.102171e-06	 2.764517e-13
-1.057755e-06	 3.700159e-06	 -5.853573e-14
0	 0	 5.775067e-08
-1.366503e-06	 1.147901e-06	 1.153868e-13
0	 0	 -5.775089e-08
0	 0	 -2.435966e-07
0	 0	 2.435967e-07
-9.662631e-07	 8.116909e-07	 -4.083596e-08
-9.662643e-07	 8.116856e-07	 4.083597e-08
-7.479466e-07	 2.616406e-06	 -1.722488e-07
-7.479449e-07	 2.616409e-06	 1.722489e-07
0	 0	 3.213647e-07
-2.867985e-07	 1.065794e-06	 2.940812e-07
-5.336401e-07	 1.950969e-06	 2.272394e-07
-6.923924e-07	 2.573057e-06	 1.218127e-07
-7.546804e-07	 2.759089e-06	 3.219656e-13
-6.923918e-07	 2.573060e-06	 -1.218123e-07
-5.336392e-07	 1.950973e-06	 -2.272394e-07
-2.867979e-07	 1.065797e-06	 -2.940816e-07
0	 0	 -3.213653e-07
0	 0	 2.836372e-07
-8.596219e-07	 2.765030e-06	 2.608904e-13
0	 0	 -2.836377e-07
-6.078440e-07	 1.955174e-06	 -2.005620e-07
-6.078450e-07	 1.955170e-06	 2.005620e-07
-6.817560e-07	 1.957868e-06	 1.739982e-07
-8.867671e-07	 2.580609e-06	 9.470095e-08
0	 0	 2.460704e-07
-3.673112e-07	 1.068922e-06	 2.286278e-07
-8.867664e-07	 2.580612e-06	 -9.470066e-08
-3.673104e-07	 1.068925e-06	 -2.286281e-07
0	 0	 -2.460708e-07
-9.641477e-07	 2.768847e-06	 2.001540e-13
-6.817549e-07	 1.957872e-06	 -1.739982e-07
-1.067645e-06	 2.771576e-06	 1.393034e-13
-7.549384e-07	 1.959802e-06	 -1.473842e-07
0	 0	 2.084326e-07
-7.549396e-07	 1.959798e-06	 1.473842e-07
0	 0	 -2.084329e-07
0	 0	 1.706133e-07
-4.472092e-07	 1.069355e-06	 1.630096e-07
-1.079658e-06	 2.581655e-06	 6.752088e-08
-1.171854e-06	 2.771857e-06	 7.797765e-14
-1.079657e-06	 2.581658e-06	 -6.752073e-08
-8.286254e-07	 1.960001e-06	 -1.206418e-07
-4.472082e-07	 1.069358e-06	 -1.630097e-07
0	 0	 -1.706134e-07
-8.286267e-07	 1.959997e-06	 1.206418e-07
-8.286285e-07	 1.959995e-06	 -1.206415e-07
0	 0	 -1.706128e-07
-4.472101e-07	 1.069355e-06	 -1.630091e-07
-1.079660e-06	 2.581653e-06	 -6.752071e-08
-1.171857e-06	 2.771856e-06	 -9.185285e-14
-1.079659e-06	 2.581657e-06	 6.752053e-08
-8.286271e-07	 1.960001e-06	 1.206415e-07
-4.472091e-07	 1.069359e-06	 1.630093e-07
0	 0	 1.706130e-07
0	 0	 -2.084321e-07
-7.549412e-07	 1.959797e-06	 -1.473839e-07
0	 0	 2.084325e-07
-1.067647e-06	 2.771575e-06	 -1.736297e-13
-7.549399e-07	 1.959802e-06	 1.473839e-07
-9.641497e-07	 2.768846e-06	 -2.547998e-13
-6.817562e-07	 1.957872e-06	 1.739978e-07
0	 0	 -2.460698e-07
-3.673120e-07	 1.068921e-06	 -2.286273e-07
-8.867681e-07	 2.580611e-06	 9.470043e-08
-3.673111e-07	 1.068925e-06	 2.286277e-07
0	 0	 2.460704e-07
-6.817574e-07	 1.957867e-06	 -1.739978e-07
-8.867690e-07	 2.580607e-06	 -9.470079e-08
-6.078463e-07	 1.955169e-06	 -2.005616e-07
-6.078452e-07	 1.955174e-06	 2.005616e-07
0	 0	 -2.836366e-07
-8.596237e-07	 2.765030e-06	 -3.358126e-13
0	 0	 2.836373e-07
0	 0	 -3.213641e-07
-2.867991e-07	 1.065794e-06	 -2.940806e-07
-5.336412e-07	 1.950967e-06	 -2.272390e-07
-6.923938e-07	 2.573056e-06	 -1.218126e-07
-7.546819e-07	 2.759088e-06	 -4.172220e-13
-6.923931e-07	 2.573060e-06	 1.218120e-07
-5.336402e-07	 1.950973e-06	 2.272390e-07
-2.867984e-07	 1.065797e-06	 2.940812e-07
0	 0	 3.213649e-07
-7.479450e-07	 2.616406e-06	 1.722491e-07
-7.479434e-07	 2.616408e-06	 -1.722490e-07
-9.662662e-07	 8.116823e-07	 -4.083552e-08
-9.662650e-07	 8.116884e-07	 4.083553e-08
0	 0	 2.435969e-07
0	 0	 -2.435970e-07
0	 0	 -5.775002e-08
-1.366506e-06	 1.147896e-06	 -1.253290e-13
0	 0	 5.775029e-08
-1.057753e-06	 3.700158e-06	 4.035632e-14
-1.113938e-06	 1.102166e-06	 -3.145413e-13
-1.007037e-06	 3.715901e-06	 8.393438e-14
-7.876725e-07	 7.793524e-07	 5.757281e-08
0	 0	 3.473482e-07
0	 0	 -3.473484e-07
-7.120836e-07	 2.627538e-06	 2.456124e-07
-7.120823e-07	 2.627540e-06	 -2.456123e-07
0	 0	 -8.141991e-08
0	 0	 8.142056e-08
-7.876738e-07	 7.793463e-07	 -5.757280e-08
-6.750407e-07	 2.631201e-06	 -3.190061e-07
-6.107277e-07	 7.457735e-07	 7.435023e-08
0	 0	 4.511426e-07
-9.546524e-07	 3.721079e-06	 1.275530e-13
0	 0	 -4.511428e-07
0	 0	 -1.051466e-07
-8.637003e-07	 1.054679e-06	 -5.035159e-13
0	 0	 1.051476e-07
-6.750416e-07	 2.631199e-06	 3.190061e-07
-6.107290e-07	 7.457674e-07	 -7.435022e-08
-5.878130e-07	 2.527245e-06	 1.625103e-07
-5.878106e-07	 2.527245e-06	 -1.625103e-07
-3.230283e-07	 1.378353e-06	 2.194609e-07
-8.312914e-07	 3.574064e-06	 -2.279484e-14
-7.428788e-07	 -2.871841e-07	 8.197334e-08
-1.373581e-06	 -5.213382e-07	 6.055160e-08
-1.373580e-06	 -5.213330e-07	 -6.055159e-08
-7.428781e-07	 -2.871801e-07	 -8.197313e-08
-7.798581e-07	 3.327638e-06	 9.090365e-08
-7.798563e-07	 3.327638e-06	 -9.090369e-08
-3.230265e-07	 1.378352e-06	 -2.194608e-07
0	 0	 2.298243e-07
0	 0	 -2.298242e-07
-1.942536e-06	 -7.372799e-07	 -9.619962e-14
0	 0	 8.563299e-08
-1.793467e-06	 -6.933170e-07	 -3.395452e-08
0	 0	 -8.563278e-08
-1.793468e-06	 -6.933209e-07	 3.395433e-08
-6.197310e-07	 2.513692e-06	 1.976010e-07
-1.284520e-06	 -5.562247e-07	 7.404760e-08
0	 0	 1.047193e-07
0	 0	 -1.047189e-07
-8.764303e-07	 3.554897e-06	 -4.845184e-14
0	 0	 2.794500e-07
0	 0	 -2.794499e-07
-6.197287e-07	 2.513691e-06	 -1.976010e-07
-1.284519e-06	 -5.562195e-07	 -7.404759e-08
-1.816585e-06	 -7.866169e-07	 -1.780141e-13
-6.467229e-07	 -3.247475e-07	 -1.150006e-07
-6.506455e-07	 2.498417e-06	 2.325368e-07
-8.637771e-07	 3.291770e-06	 -1.264833e-07
-1.195653e-06	 -5.900343e-07	 8.747585e-08
-1.561328e-06	 -7.840126e-07	 -4.763508e-08
-1.561328e-06	 -7.840164e-07	 4.763471e-08
0	 0	 3.288568e-07
-3.577892e-07	 1.363496e-06	 3.053576e-07
-9.201503e-07	 3.533295e-06	 -7.389589e-14
0	 0	 -3.288566e-07
-1.690908e-06	 -8.344308e-07	 -2.592761e-13
0	 0	 1.237098e-07
-6.467236e-07	 -3.247514e-07	 1.150010e-07
0	 0	 -1.237093e-07
-8.637786e-07	 3.291771e-06	 1.264832e-07
-3.577877e-07	 1.363496e-06	 -3.053575e-07
-6.506434e-07	 2.498416e-06	 -2.325368e-07
-1.195652e-06	 -5.900291e-07	 -8.747585e-08
0	 0	 3.781838e-07
-6.817218e-07	 2.482360e-06	 2.674163e-07
-6.817199e-07	 2.482359e-06	 -2.674162e-07
0	 0	 -3.781836e-07
0	 0	 1.427003e-07
-1.105815e-06	 -6.238945e-07	 -1.009041e-07
0	 0	 -1.426996e-07
-1.105816e-06	 -6.238996e-07	 1.009041e-07
-9.640989e-07	 3.510587e-06	 -9.934943e-14
-1.563859e-06	 -8.823237e-07	 -3.403985e-13
-3.918246e-07	 1.345833e-06	 3.910354e-07
-5.493473e-07	 -3.613587e-07	 1.480118e-07
-1.015362e-06	 -6.571380e-07	 -1.143938e-07
-5.493464e-07	 -3.613549e-07	 -1.480112e-07
0	 0	 4.276831e-07
-7.123032e-07	 2.464676e-06	 3.024175e-07
-1.007348e-06	 3.485577e-06	 -1.249586e-13
-9.459461e-07	 3.249126e-06	 -1.619722e-07
-7.123014e-07	 2.464675e-06	 -3.024175e-07
-3.918233e-07	 1.345832e-06	 -3.910352e-07
0	 0	 -4.276828e-07
0	 0	 1.617777e-07
-1.015364e-06	 -6.571431e-07	 1.143938e-07
-1.435940e-06	 -9.293371e-07	 -4.218263e-13
-1.326240e-06	 -8.723905e-07	 -6.130865e-08
0	 0	 -1.617769e-07
-9.459473e-07	 3.249127e-06	 1.619720e-07
-1.326241e-06	 -8.723943e-07	 6.130811e-08
0	 0	 1.495887e-07
-1.863785e-07	 2.590121e-06	 -8.654089e-14