# vtk DataFile Version 3.0
Unstructured Grid Example
ASCII
DATASET UNSTRUCTURED_GRID
POINTS 1641 float
-9.500000e-01	 0	 0
-9.500000e-01	 0	 3.750000e-01
-9.500000e-01	 0	 1.125000e+00
-9.500000e-01	 0	 1.500000e+00
-9.500000e-01	 0	 1.875000e+00
-9.500000e-01	 0	 2.250000e+00
-9.500000e-01	 0	 2.625000e+00
-9.500000e-01	 0	 3
-9.500000e-01	 0	 7.500000e-01
-9.341401e-01	 -1.728649e-01	 1.500000e+00
-9.341401e-01	 -1.728649e-01	 0
-9.341401e-01	 -1.728649e-01	 3.000000e+00
-9.341401e-01	 1.728649e-01	 2.250000e+00
-9.341401e-01	 1.728649e-01	 0
-9.341401e-01	 1.728649e-01	 1.500000e+00
-9.341401e-01	 1.728649e-01	 3.000000e+00
-9.341401e-01	 -1.728649e-01	 7.500000e-01
-9.341401e-01	 -1.728649e-01	 2.250000e+00
-9.341401e-01	 1.728649e-01	 7.500000e-01
-8.832989e-01	 -3.496900e-01	 1.125000e+00
-8.832989e-01	 -3.496900e-01	 1.875000e+00
-8.832989e-01	 -3.496900e-01	 2.625000e+00
-8.832989e-01	 -3.496900e-01	 2.250000e+00
-8.832989e-01	 3.496900e-01	 1.125000e+00
-8.832989e-01	 -3.496900e-01	 0
-8.832989e-01	 -3.496900e-01	 3.000000e+00
-8.832989e-01	 -3.496900e-01	 3.750000e-01
-8.832989e-01	 -3.496900e-01	 7.500000e-01
-8.832989e-01	 3.496900e-01	 3.750000e-01
-8.832989e-01	 3.496900e-01	 7.500000e-01
-8.832989e-01	 3.496900e-01	 2.250000e+00
-8.832989e-01	 3.496900e-01	 2.625000e+00
-8.832989e-01	 3.496900e-01	 0
-8.832989e-01	 3.496900e-01	 1.875000e+00
-8.832989e-01	 3.496900e-01	 3.000000e+00
-8.832989e-01	 -3.496900e-01	 1.500000e+00
-8.832989e-01	 3.496900e-01	 1.500000e+00
-8.787500e-01	 0	 2.250000e+00
-8.787500e-01	 0	 0
-8.787500e-01	 0	 1.500000e+00
-8.787500e-01	 0	 3
-8.787500e-01	 0	 7.500000e-01
-8.149622e-01	 -3.223238e-01	 7.500000e-01
-8.149622e-01	 3.223238e-01	 7.500000e-01
-8.149622e-01	 -3.223238e-01	 2.250000e+00
-8.149622e-01	 3.223238e-01	 2.250000e+00
-8.149622e-01	 -3.223238e-01	 0
-8.149622e-01	 -3.223238e-01	 1.500000e+00
-8.149622e-01	 -3.223238e-01	 3
-8.149622e-01	 3.223238e-01	 1.500000e+00
-8.149622e-01	 3.223238e-01	 0
-8.149622e-01	 3.223238e-01	 3
-8.075000e-01	 0	 7.500000e-01
-8.075000e-01	 0	 2.250000e+00
-8.075000e-01	 0	 3.750000e-01
-8.075000e-01	 0	 1.875000e+00
-8.075000e-01	 0	 2.625000e+00
-8.075000e-01	 0	 0
-8.075000e-01	 0	 1.125000e+00
-8.075000e-01	 0	 1.500000e+00
-8.075000e-01	 0	 3
-7.951457e-01	 -5.198493e-01	 7.500000e-01
-7.951457e-01	 5.198493e-01	 7.500000e-01
-7.951457e-01	 -5.198493e-01	 0
-7.951457e-01	 -5.198493e-01	 1.500000e+00
-7.951457e-01	 -5.198493e-01	 2.250000e+00
-7.951457e-01	 -5.198493e-01	 3
-7.951457e-01	 5.198493e-01	 0
-7.951457e-01	 5.198493e-01	 1.500000e+00
-7.951457e-01	 5.198493e-01	 2.250000e+00
-7.951457e-01	 5.198493e-01	 3
-7.894916e-01	 -1.451644e-01	 7.500000e-01
-7.894916e-01	 1.451644e-01	 7.500000e-01
-7.894916e-01	 1.451644e-01	 0
-7.894916e-01	 1.451644e-01	 3
-7.894916e-01	 -1.451644e-01	 0
-7.894916e-01	 -1.451644e-01	 1.500000e+00
-7.894916e-01	 -1.451644e-01	 2.250000e+00
-7.894916e-01	 -1.451644e-01	 3
-7.894916e-01	 1.451644e-01	 1.500000e+00
-7.894916e-01	 1.451644e-01	 2.250000e+00
-7.430021e-01	 -2.929055e-01	 1.500000e+00
-7.430021e-01	 2.929055e-01	 1.500000e+00
-7.430021e-01	 -2.929055e-01	 2.250000e+00
-7.430021e-01	 -2.929055e-01	 0
-7.430021e-01	 -2.929055e-01	 3.000000e+00
-7.430021e-01	 2.929055e-01	 3.750000e-01
-7.430021e-01	 -2.929055e-01	 3.750000e-01
-7.430021e-01	 -2.929055e-01	 1.125000e+00
-7.430021e-01	 -2.929055e-01	 1.875000e+00
-7.430021e-01	 -2.929055e-01	 2.625000e+00
-7.430021e-01	 2.929055e-01	 1.125000e+00
-7.430021e-01	 2.929055e-01	 0
-7.430021e-01	 2.929055e-01	 1.875000e+00
-7.430021e-01	 2.929055e-01	 2.250000e+00
-7.430021e-01	 2.929055e-01	 2.625000e+00
-7.430021e-01	 2.929055e-01	 3.000000e+00
-7.430021e-01	 2.929055e-01	 7.500000e-01
-7.430021e-01	 -2.929055e-01	 7.500000e-01
-7.362500e-01	 0	 0
-7.362500e-01	 0	 7.500000e-01
-7.362500e-01	 0	 1.500000e+00
-7.362500e-01	 0	 2.250000e+00
-7.362500e-01	 0	 3
-6.717514e-01	 -6.717514e-01	 2.625000e+00
-6.717514e-01	 6.717514e-01	 2.625000e+00
-6.717514e-01	 -6.717514e-01	 0
-6.717514e-01	 -6.717514e-01	 3.750000e-01
-6.717514e-01	 -6.717514e-01	 7.500000e-01
-6.717514e-01	 -6.717514e-01	 1.125000e+00
-6.717514e-01	 -6.717514e-01	 1.875000e+00
-6.717514e-01	 -6.717514e-01	 3.000000e+00
-6.717514e-01	 -6.717514e-01	 2.250000e+00
-6.717514e-01	 6.717514e-01	 1.500000e+00
-6.717514e-01	 6.717514e-01	 0
-6.717514e-01	 6.717514e-01	 3.750000e-01
-6.717514e-01	 6.717514e-01	 7.500000e-01
-6.717514e-01	 6.717514e-01	 1.125000e+00
-6.717514e-01	 6.717514e-01	 1.875000e+00
-6.717514e-01	 6.717514e-01	 3.000000e+00
-6.717514e-01	 -6.717514e-01	 1.500000e+00
-6.717514e-01	 6.717514e-01	 2.250000e+00
-6.682985e-01	 -2.618048e-01	 0
-6.682985e-01	 -2.618048e-01	 1.500000e+00
-6.682985e-01	 -2.618048e-01	 3
-6.682985e-01	 -2.618048e-01	 7.500000e-01
-6.682985e-01	 -2.618048e-01	 2.250000e+00
-6.682985e-01	 2.618048e-01	 7.500000e-01
-6.682985e-01	 2.618048e-01	 2.250000e+00
-6.682985e-01	 2.618048e-01	 0
-6.682985e-01	 2.618048e-01	 1.500000e+00
-6.682985e-01	 2.618048e-01	 3
-6.665713e-01	 -4.348738e-01	 2.250000e+00
-6.665713e-01	 -4.348738e-01	 7.500000e-01
-6.665713e-01	 4.348738e-01	 7.500000e-01
-6.665713e-01	 4.348738e-01	 2.250000e+00
-6.665713e-01	 -4.348738e-01	 0
-6.665713e-01	 -4.348738e-01	 3
-6.665713e-01	 4.348738e-01	 0
-6.665713e-01	 4.348738e-01	 1.500000e+00
-6.665713e-01	 4.348738e-01	 3
-6.665713e-01	 -4.348738e-01	 1.500000e+00
-6.650000e-01	 0	 7.500000e-01
-6.650000e-01	 0	 0
-6.650000e-01	 0	 3.750000e-01
-6.650000e-01	 0	 1.125000e+00
-6.650000e-01	 0	 1.500000e+00
-6.650000e-01	 0	 1.875000e+00
-6.650000e-01	 0	 2.625000e+00
-6.650000e-01	 0	 3
-6.650000e-01	 0	 2.250000e+00
-6.383743e-01	 -1.144482e-01	 0
-6.383743e-01	 -1.144482e-01	 3.000000e+00
-6.383743e-01	 -1.144482e-01	 7.500000e-01
-6.383743e-01	 -1.144482e-01	 1.500000e+00
-6.383743e-01	 -1.144482e-01	 2.250000e+00
-6.383743e-01	 1.144482e-01	 7.500000e-01
-6.383743e-01	 1.144482e-01	 1.500000e+00
-6.383743e-01	 1.144482e-01	 0
-6.383743e-01	 1.144482e-01	 2.250000e+00
-6.383743e-01	 1.144482e-01	 3.000000e+00
-6.189903e-01	 -6.189903e-01	 0
-6.189903e-01	 -6.189903e-01	 1.500000e+00
-6.189903e-01	 -6.189903e-01	 3.000000e+00
-6.189903e-01	 6.189903e-01	 2.250000e+00
-6.189903e-01	 6.189903e-01	 0
-6.189903e-01	 6.189903e-01	 1.500000e+00
-6.189903e-01	 6.189903e-01	 3.000000e+00
-6.189903e-01	 -6.189903e-01	 2.250000e+00
-6.189903e-01	 -6.189903e-01	 7.500000e-01
-6.189903e-01	 6.189903e-01	 7.500000e-01
-5.937500e-01	 0	 0
-5.937500e-01	 0	 7.500000e-01
-5.937500e-01	 0	 1.500000e+00
-5.937500e-01	 0	 2.250000e+00
-5.937500e-01	 0	 3
-5.917666e-01	 2.294176e-01	 1.875000e+00
-5.917666e-01	 2.294176e-01	 2.250000e+00
-5.917666e-01	 -2.294176e-01	 2.250000e+00
-5.917666e-01	 -2.294176e-01	 0
-5.917666e-01	 -2.294176e-01	 2.625000e+00
-5.917666e-01	 -2.294176e-01	 3
-5.917666e-01	 -2.294176e-01	 1.500000e+00
-5.917666e-01	 -2.294176e-01	 1.875000e+00
-5.917666e-01	 2.294176e-01	 0
-5.917666e-01	 2.294176e-01	 2.625000e+00
-5.917666e-01	 2.294176e-01	 3
-5.917666e-01	 2.294176e-01	 1.500000e+00
-5.917666e-01	 -2.294176e-01	 3.750000e-01
-5.917666e-01	 -2.294176e-01	 7.500000e-01
-5.917666e-01	 -2.294176e-01	 1.125000e+00
-5.917666e-01	 2.294176e-01	 7.500000e-01
-5.917666e-01	 2.294176e-01	 1.125000e+00
-5.917666e-01	 2.294176e-01	 3.750000e-01
-5.620800e-01	 5.620800e-01	 1.125000e+00
-5.620800e-01	 -5.620800e-01	 1.125000e+00
-5.620800e-01	 -5.620800e-01	 3.750000e-01
-5.620800e-01	 -5.620800e-01	 7.500000e-01
-5.620800e-01	 -5.620800e-01	 1.875000e+00
-5.620800e-01	 -5.620800e-01	 2.625000e+00
-5.620800e-01	 5.620800e-01	 3.750000e-01
-5.620800e-01	 5.620800e-01	 7.500000e-01
-5.620800e-01	 5.620800e-01	 1.875000e+00
-5.620800e-01	 -5.620800e-01	 0
-5.620800e-01	 -5.620800e-01	 1.500000e+00
-5.620800e-01	 -5.620800e-01	 2.250000e+00
-5.620800e-01	 -5.620800e-01	 3
-5.620800e-01	 5.620800e-01	 0
-5.620800e-01	 5.620800e-01	 1.500000e+00
-5.620800e-01	 5.620800e-01	 2.250000e+00
-5.620800e-01	 5.620800e-01	 3
-5.620800e-01	 5.620800e-01	 2.625000e+00
-5.250231e-01	 -3.396892e-01	 7.500000e-01
-5.250231e-01	 3.396892e-01	 1.500000e+00
-5.250231e-01	 3.396892e-01	 2.250000e+00
-5.250231e-01	 3.396892e-01	 7.500000e-01
-5.250231e-01	 -3.396892e-01	 2.250000e+00
-5.250231e-01	 -3.396892e-01	 0
-5.250231e-01	 -3.396892e-01	 1.500000e+00
-5.250231e-01	 -3.396892e-01	 3.000000e+00
-5.250231e-01	 3.396892e-01	 0
-5.250231e-01	 3.396892e-01	 3.000000e+00
-5.225000e-01	 0	 1.500000e+00
-5.225000e-01	 0	 2.250000e+00
-5.225000e-01	 0	 0
-5.225000e-01	 0	 3.750000e-01
-5.225000e-01	 0	 7.500000e-01
-5.225000e-01	 0	 1.125000e+00
-5.225000e-01	 0	 1.875000e+00
-5.225000e-01	 0	 2.625000e+00
-5.225000e-01	 0	 3
-5.198493e-01	 7.951457e-01	 7.500000e-01
-5.198493e-01	 -7.951457e-01	 7.500000e-01
-5.198493e-01	 -7.951457e-01	 0
-5.198493e-01	 -7.951457e-01	 1.500000e+00
-5.198493e-01	 -7.951457e-01	 2.250000e+00
-5.198493e-01	 -7.951457e-01	 3
-5.198493e-01	 7.951457e-01	 0
-5.198493e-01	 7.951457e-01	 1.500000e+00
-5.198493e-01	 7.951457e-01	 2.250000e+00
-5.198493e-01	 7.951457e-01	 3
-5.143216e-01	 -1.961513e-01	 2.250000e+00
-5.143216e-01	 1.961513e-01	 7.500000e-01
-5.143216e-01	 1.961513e-01	 1.500000e+00
-5.143216e-01	 -1.961513e-01	 7.500000e-01
-5.143216e-01	 -1.961513e-01	 0
-5.143216e-01	 -1.961513e-01	 3.000000e+00
-5.143216e-01	 -1.961513e-01	 1.500000e+00
-5.143216e-01	 1.961513e-01	 2.250000e+00
-5.143216e-01	 1.961513e-01	 0
-5.143216e-01	 1.961513e-01	 3.000000e+00
-5.020120e-01	 -5.020120e-01	 7.500000e-01
-5.020120e-01	 -5.020120e-01	 1.500000e+00
-5.020120e-01	 5.020120e-01	 7.500000e-01
-5.020120e-01	 5.020120e-01	 1.500000e+00
-5.020120e-01	 -5.020120e-01	 0
-5.020120e-01	 -5.020120e-01	 2.250000e+00
-5.020120e-01	 -5.020120e-01	 3.000000e+00
-5.020120e-01	 5.020120e-01	 0
-5.020120e-01	 5.020120e-01	 2.250000e+00
-5.020120e-01	 5.020120e-01	 3.000000e+00
-4.847636e-01	 8.158725e-02	 7.500000e-01
-4.847636e-01	 -8.158725e-02	 7.500000e-01
[...]
POINT_DATA 1641
SCALARS pres_adim float 1
LOOKUP_TABLE default
-1.817045e+02
-1.284244e+02
1.284244e+02
1.817045e+02
1.284244e+02
-7.894897e-06
-1.284244e+02
-1.817045e+02
-7.921094e-06
1.817045e+02
-1.817045e+02
-1.817045e+02
-5.910283e-06
-1.817045e+02
1.817045e+02
-1.817045e+02
-5.931804e-06
-5.913537e-06
-5.917586e-06
1.284244e+02
1.284244e+02
-1.284244e+02
-4.810738e-07
1.284244e+02
-1.817045e+02
-1.817045e+02
-1.284244e+02
-4.652736e-07
-1.284244e+02
-4.518511e-07
-4.765746e-07
-1.284244e+02
-1.817045e+02
1.284244e+02
-1.817045e+02
1.817045e+02
1.817045e+02
-7.697088e-06
-1.817045e+02
1.817045e+02
-1.817045e+02
-7.723176e-06
-4.672259e-07
-4.542122e-07
-4.825733e-07
-4.784407e-07
-1.817045e+02
1.817045e+02
-1.817045e+02
1.817045e+02
-1.817045e+02
-1.817045e+02
-6.954752e-06
-6.932205e-06
-1.284244e+02
1.284244e+02
-1.284244e+02
-1.817045e+02
1.284244e+02
1.817045e+02
-1.817045e+02
5.414843e-06
5.417101e-06
-1.817045e+02
1.817045e+02
5.380679e-06
-1.817045e+02
-1.817045e+02
1.817045e+02
5.383889e-06
-1.817045e+02
-5.173495e-06
-5.161844e-06
-1.817045e+02
-1.817045e+02
-1.817045e+02
1.817045e+02
-5.157543e-06
-1.817045e+02
1.817045e+02
-5.155119e-06
1.817045e+02
1.817045e+02
-4.678594e-07
-1.817045e+02
-1.817045e+02
-1.284244e+02
-1.284244e+02
1.284244e+02
1.284244e+02
-1.284244e+02
1.284244e+02
-1.817045e+02
1.284244e+02
-4.649404e-07
-1.284244e+02
-1.817045e+02
-4.456928e-07
-4.564932e-07
-1.817045e+02
-5.958900e-06
1.817045e+02
-5.939589e-06
-1.817045e+02
-1.284244e+02
-1.284244e+02
-1.817045e+02
-1.284244e+02
7.896900e-06
1.284244e+02
1.284244e+02
-1.817045e+02
7.892267e-06
1.817045e+02
-1.817045e+02
-1.284244e+02
7.888212e-06
1.284244e+02
1.284244e+02
-1.817045e+02
1.817045e+02
7.891577e-06
-1.817045e+02
1.817045e+02
-1.817045e+02
-4.274876e-07
-4.347626e-07
-4.199882e-07
-4.333845e-07
-1.817045e+02
1.817045e+02
-1.817045e+02
4.600192e-06
4.626660e-06
4.628148e-06
4.601579e-06
-1.817045e+02
-1.817045e+02
-1.817045e+02
1.817045e+02
-1.817045e+02
1.817045e+02
-4.751839e-06
-1.817045e+02
-1.284244e+02
1.284244e+02
1.817045e+02
1.284244e+02
-1.284244e+02
-1.817045e+02
-4.736153e-06
-1.817045e+02
-1.817045e+02
-3.379362e-06
1.817045e+02
-3.368672e-06
-3.374738e-06
1.817045e+02
-1.817045e+02
-3.368188e-06
-1.817045e+02
-1.817045e+02
1.817045e+02
-1.817045e+02
7.661557e-06
-1.817045e+02
1.817045e+02
-1.817045e+02
7.662260e-06
7.666604e-06
7.658168e-06
-1.817045e+02
-3.522144e-06
1.817045e+02
-3.510350e-06
-1.817045e+02
1.284244e+02
-3.842784e-07
-3.842221e-07
-1.817045e+02
-1.284244e+02
-1.817045e+02
1.817045e+02
1.284244e+02
-1.817045e+02
-1.284244e+02
-1.817045e+02
1.817045e+02
-1.284244e+02
-3.803421e-07
1.284244e+02
-3.773448e-07
1.284244e+02
-1.284244e+02
1.284244e+02
1.284244e+02
-1.284244e+02
6.760319e-06
1.284244e+02
-1.284244e+02
-1.284244e+02
6.753624e-06
1.284244e+02
-1.817045e+02
1.817045e+02
6.756574e-06
-1.817045e+02
-1.817045e+02
1.817045e+02
6.755379e-06
-1.817045e+02
-1.284244e+02
2.691037e-06
1.817045e+02
2.677985e-06
2.688650e-06
2.679159e-06
-1.817045e+02
1.817045e+02
-1.817045e+02
-1.817045e+02
-1.817045e+02
1.817045e+02
-2.441954e-06
-1.817045e+02
-1.284244e+02
-2.451019e-06
1.284244e+02
1.284244e+02
-1.284244e+02
-1.817045e+02
5.375402e-06
5.386430e-06
-1.817045e+02
1.817045e+02
5.417484e-06
-1.817045e+02
-1.817045e+02
1.817045e+02
5.410683e-06
-1.817045e+02
-3.179785e-07
-3.181186e-07
1.817045e+02
-3.166193e-07
-1.817045e+02
-1.817045e+02
1.817045e+02
-3.190478e-07
-1.817045e+02
-1.817045e+02
5.497355e-06
1.817045e+02
5.491690e-06
1.817045e+02
-1.817045e+02
5.493952e-06
-1.817045e+02
-1.817045e+02
5.492458e-06
-1.817045e+02
-1.559691e-06
-1.558351e-06
-1.817045e+02
1.817045e+02
-1.817045e+02
-1.553127e-06
-1.817045e+02
1.817045e+02
-1.554056e-06
-1.817045e+02
1.817045e+02
-1.489302e-06
-1.817045e+02
-1.495016e-06
-1.817045e+02
1.284244e+02
1.284244e+02
-1.817045e+02
-1.284244e+02
-1.817045e+02
-1.284244e+02
1.817045e+02
1.284244e+02
-1.817045e+02
-1.284244e+02
-1.817045e+02
1.284244e+02
3.981828e-06
3.980223e-06
-1.284244e+02
1.817045e+02
3.979486e-06
3.985174e-06
1.284244e+02
1.817045e+02
-1.284244e+02
-1.284244e+02
1.817045e+02
1.284244e+02
-2.484474e-07
-1.284244e+02
-1.284244e+02
-2.474467e-07
-1.817045e+02
-2.517100e-07
-2.500059e-07
-1.817045e+02
1.284244e+02
1.284244e+02
-1.817045e+02
-1.817045e+02
4.622328e-06
4.627372e-06
-1.817045e+02
-1.817045e+02
4.603572e-06
-1.817045e+02
1.817045e+02
-1.817045e+02
1.817045e+02
4.595871e-06
-1.817045e+02
-1.284244e+02
-8.532061e-07
1.284244e+02
1.817045e+02
1.284244e+02
-8.496598e-07
-1.284244e+02
-1.817045e+02
9.265627e-07
9.221860e-07
-1.817045e+02
-1.817045e+02
1.817045e+02
-1.817045e+02
1.817045e+02
9.203025e-07
-1.817045e+02
9.198192e-07
2.539289e-06
-1.817045e+02
2.542807e-06
1.817045e+02
-1.817045e+02
-1.817045e+02
2.536889e-06
1.817045e+02
-1.817045e+02
2.537477e-06
-1.683219e-07
-1.817045e+02
-1.817045e+02
-1.817045e+02
-1.817045e+02
-1.700335e-07
-1.676459e-07
-1.726585e-07
1.817045e+02
1.817045e+02
1.284244e+02
-1.817045e+02
1.284244e+02
-1.817045e+02
1.817045e+02
-1.817045e+02
-1.817045e+02
1.284244e+02
1.284244e+02
-1.284244e+02
-1.284244e+02
-4.786739e-07
-4.557038e-07
-1.284244e+02
1.817045e+02
-1.284244e+02
-4.652816e-07
-4.800944e-07
2.678907e-06
1.817045e+02
2.687428e-06
2.685555e-06
2.675835e-06
-1.817045e+02
-1.817045e+02
-1.817045e+02
1.817045e+02
-1.817045e+02
-4.533646e-07
1.817045e+02
-1.817045e+02
-4.521234e-07
-1.817045e+02
-1.817045e+02
1.817045e+02
-4.530925e-07
-1.817045e+02
-4.553960e-07
-4.807250e-07
-4.580695e-07
-4.814789e-07
-4.672360e-07
-1.817045e+02
-1.817045e+02
-1.817045e+02
1.817045e+02
-1.817045e+02
1.817045e+02
1.433162e-06
1.426834e-06
1.284244e+02
1.284244e+02
-1.817045e+02
-1.284244e+02
1.817045e+02
1.284244e+02
-1.284244e+02
-1.817045e+02
-1.817045e+02
-1.284244e+02
1.817045e+02
1.284244e+02
-1.284244e+02
-1.817045e+02
1.429723e-06
1.427847e-06
1.817045e+02
-1.284244e+02
-1.284244e+02
-4.569025e-07
1.817045e+02
-1.817045e+02
1.284244e+02
-4.497863e-07
-1.284244e+02
-1.817045e+02
1.284244e+02
1.284244e+02
-1.817045e+02
-1.817045e+02
1.284244e+02
-4.675437e-07
-4.671097e-07
-1.284244e+02
-1.284244e+02
-1.817045e+02
1.284244e+02
1.817045e+02
1.284244e+02
-9.941564e-08
-1.284244e+02
-1.817045e+02
-1.817045e+02
-1.023894e-07
-1.011246e-07
-1.284244e+02
-1.817045e+02
1.284244e+02
1.817045e+02
-9.845941e-08
-1.284244e+02
1.284244e+02
-1.817045e+02
1.817045e+02
-1.817045e+02
-1.817045e+02
1.817045e+02
-1.817045e+02
-4.366401e-07
-4.239366e-07
-4.344926e-07
-4.283614e-07
-1.817045e+02
6.332565e-07
1.817045e+02
-1.817045e+02
-1.817045e+02
6.272450e-07
1.817045e+02
-1.817045e+02
6.301627e-07
6.280081e-07
9.212549e-07
9.187902e-07
9.195738e-07
-1.817045e+02
1.817045e+02
9.205811e-07
-1.817045e+02
-1.817045e+02
-1.817045e+02
1.817045e+02
1.817045e+02
1.817045e+02
1.817045e+02
-1.817045e+02
-1.817045e+02
1.817045e+02
-1.817045e+02
1.346990e-07
-1.817045e+02
1.367099e-07
-1.153949e-07
-1.147880e-07
-1.817045e+02
-1.168113e-07
-1.817045e+02
-1.163061e-07
1.317126e-07
-1.817045e+02
1.325763e-07
-1.817045e+02
-3.823272e-07
-3.805292e-07
1.817045e+02
-1.284244e+02
-1.284244e+02
-1.817045e+02
-1.284244e+02
-1.817045e+02
-3.846342e-07
-1.817045e+02
-1.284244e+02
-1.817045e+02
1.284244e+02
-3.882668e-07
1.284244e+02
1.284244e+02
1.817045e+02
1.284244e+02
-3.193581e-07
1.817045e+02
-1.817045e+02
-1.817045e+02
-1.817045e+02
-1.817045e+02
-3.232867e-07
-3.203536e-07
1.817045e+02
-3.200070e-07
2.421002e-07
2.371429e-07
-1.284244e+02
1.817045e+02
-6.356626e-08
-1.284244e+02
-1.817045e+02
1.284244e+02
1.817045e+02
1.284244e+02
2.396904e-07
-1.284244e+02
-1.817045e+02
-1.284244e+02
-1.284244e+02
-1.817045e+02
1.284244e+02
-1.817045e+02
-6.382967e-08
-1.817045e+02
1.284244e+02
1.817045e+02
1.284244e+02
2.374345e-07
-1.284244e+02
-1.817045e+02
1.284244e+02
1.817045e+02
-1.817045e+02
1.817045e+02
-1.817045e+02
-1.817045e+02
-1.817045e+02
-5.922785e-06
-5.913698e-06
-5.906421e-06
-5.927754e-06
1.284244e+02
1.284244e+02
1.817045e+02
1.284244e+02
1.284244e+02
-2.519775e-07
1.817045e+02
-1.284244e+02
-1.817045e+02
-2.538257e-07
-2.526905e-07
-1.817045e+02
-1.817045e+02
-1.817045e+02
-1.284244e+02
-1.284244e+02
-1.284244e+02
-2.506549e-07
-5.159293e-06
-1.817045e+02
-1.817045e+02
-5.151575e-06
1.817045e+02
-5.166278e-06
-1.817045e+02
1.817045e+02
-5.169575e-06
-1.817045e+02
7.774885e-08
7.399622e-08
1.817045e+02
1.817045e+02
-1.817045e+02
1.329326e-07
-1.817045e+02
7.625964e-08
-1.817045e+02
1.817045e+02
-1.817045e+02
-1.817045e+02
1.817045e+02
-1.014886e-08
-1.817045e+02
-9.495882e-09
-1.089717e-08
-1.817045e+02
-1.817045e+02
-1.114362e-08
-1.817045e+02
7.405641e-08
-1.817045e+02
-1.817045e+02
1.310291e-07
-1.817045e+02
1.817045e+02
1.348986e-07
1.817045e+02
1.312943e-07
-1.730189e-07
1.817045e+02
-1.817045e+02
-1.817045e+02
-1.723961e-07
1.817045e+02
-1.712827e-07
-1.817045e+02
-1.817045e+02
-1.728631e-07
-1.817045e+02
-3.377522e-06
-1.817045e+02
-1.817045e+02
-1.817045e+02
1.817045e+02
-3.376239e-06
-3.365189e-06
-3.374228e-06
1.817045e+02
1.817045e+02
1.284244e+02
1.817045e+02
-1.284244e+02
-1.284244e+02
1.334935e-08
-1.284244e+02
-1.284244e+02
-1.817045e+02
-1.016254e-07
-1.024362e-07
-1.284244e+02
-1.817045e+02
1.284244e+02
-1.817045e+02
-1.817045e+02
1.391540e-08
1.284244e+02
1.817045e+02
-1.817045e+02
1.161257e-08
1.284244e+02
1.158342e-08
-1.284244e+02
-1.817045e+02
-1.027608e-07
-1.817045e+02
1.284244e+02
1.817045e+02
1.284244e+02
-1.034331e-07
-1.284244e+02
-1.817045e+02
-1.284244e+02
1.284244e+02
1.284244e+02
-1.560710e-06
-1.552727e-06
-1.817045e+02
1.817045e+02
-1.561104e-06
-1.817045e+02
-1.817045e+02
1.817045e+02
-1.817045e+02
-1.557793e-06
-4.563717e-07
-1.171901e-07
-5.015782e-09
-1.183632e-07
1.817045e+02
-1.817045e+02
1.817045e+02
-4.563016e-07
-1.817045e+02
1.817045e+02
-1.817045e+02
-1.817045e+02
-1.168356e-07
-1.055600e-08
-1.817045e+02
-3.963682e-09
-1.817045e+02
1.817045e+02
-3.875699e-09
-1.817045e+02
1.817045e+02
-4.853352e-09
-1.817045e+02
-1.817045e+02
-1.817045e+02
1.817045e+02
-1.263217e-08
-1.188127e-07
-1.817045e+02
-1.817045e+02
1.817045e+02
-1.817045e+02
-4.558055e-07
-1.817045e+02
-4.542800e-07
-1.817045e+02
1.817045e+02
-1.817045e+02
-1.021299e-08
-1.265057e-08
-1.284244e+02
-1.284244e+02
1.284244e+02
1.284244e+02
-6.455917e-08
-6.425869e-08
-1.817045e+02
-1.284244e+02
1.284244e+02
1.817045e+02
1.284244e+02
-7.922747e-06
-1.284244e+02
-1.817045e+02
-7.894742e-06
-7.724758e-06
-1.817045e+02
1.817045e+02
-1.817045e+02
-7.697076e-06
-6.933294e-06
-6.955829e-06
-1.284244e+02
1.284244e+02
-1.284244e+02
-1.817045e+02
1.284244e+02
1.817045e+02
-1.817045e+02
-1.817045e+02
-5.942258e-06
1.817045e+02
-5.959394e-06
-1.817045e+02
-4.740487e-06
-1.817045e+02
-1.284244e+02
1.284244e+02
1.817045e+02
1.284244e+02
-1.284244e+02
-1.817045e+02
-4.752100e-06
-1.817045e+02
-3.516490e-06
1.817045e+02
-3.522171e-06
-1.817045e+02
1.817045e+02
-2.451215e-06
-1.817045e+02
-1.284244e+02
-2.448754e-06
1.284244e+02
1.284244e+02
-1.284244e+02
-1.817045e+02
1.817045e+02
-1.495596e-06
-1.817045e+02
-1.495917e-06
-1.817045e+02
-1.817045e+02
-1.284244e+02
-8.548975e-07
1.284244e+02
1.817045e+02
1.284244e+02
-8.539202e-07
-1.284244e+02
-1.817045e+02
-1.817045e+02
-1.817045e+02
1.284244e+02
1.284244e+02
1.817045e+02
8.880940e-10
1.165775e-09
-1.284244e+02
-1.284244e+02
-1.817045e+02
-6.618003e-08
-1.817045e+02
-6.625240e-08
1.817045e+02
-1.817045e+02
-1.284244e+02
-8.498282e-07
1.284244e+02
1.817045e+02
1.284244e+02
-8.517211e-07
-1.284244e+02
-1.817045e+02
-1.817045e+02
-1.487829e-06
-1.817045e+02
-1.491366e-06
1.817045e+02
-1.817045e+02
-1.284244e+02
-2.438970e-06
1.284244e+02
1.284244e+02
-1.284244e+02
-1.817045e+02
1.817045e+02
-2.445500e-06
-1.817045e+02
-3.506479e-06
1.817045e+02
-3.515814e-06
-1.817045e+02
-4.745918e-06
-1.817045e+02
-1.284244e+02
1.284244e+02
1.817045e+02
1.284244e+02
-1.284244e+02
-1.817045e+02
-4.731583e-06
-1.817045e+02
-5.935209e-06
1.817045e+02
-5.954044e-06
-1.817045e+02
-1.817045e+02
1.284244e+02
1.817045e+02
-1.817045e+02
-1.284244e+02
1.284244e+02
-1.284244e+02
-6.928109e-06
-6.951195e-06
-7.693062e-06
-1.817045e+02
1.817045e+02
-1.817045e+02
-7.720520e-06
-7.891283e-06
-1.817045e+02
-1.284244e+02
1.284244e+02
1.817045e+02
1.284244e+02
-7.918775e-06
-1.284244e+02
-1.817045e+02
-1.284244e+02
-1.817045e+02
-1.817045e+02
1.817045e+02
-1.284244e+02
1.284244e+02
1.284244e+02
-1.132904e-08
1.817045e+02
-1.817045e+02
-1.308513e-08
1.817045e+02
-1.817045e+02
-1.817045e+02
1.817045e+02
-1.817045e+02
1.817045e+02
-4.561094e-07
-1.817045e+02
1.817045e+02
-4.540451e-07
-1.817045e+02
-1.817045e+02
-1.817045e+02
-1.817045e+02
-5.373880e-09
-4.888817e-09
-1.817045e+02
-1.817045e+02
-5.756849e-09
-1.817045e+02
-6.219750e-09
-1.279938e-08
-1.178144e-07
-1.175774e-07
-1.817045e+02
-1.817045e+02
-1.817045e+02
1.817045e+02
-4.532632e-07
-1.817045e+02
-4.530755e-07
-1.161679e-07
-1.173073e-07
-1.073918e-08
1.817045e+02
1.817045e+02
-1.557164e-06
-1.817045e+02
1.817045e+02
-1.817045e+02
-1.817045e+02
1.817045e+02
-1.551775e-06
-1.817045e+02
-1.558767e-06
-1.550513e-06
-1.284244e+02
1.284244e+02
1.030418e-08
1.817045e+02
-1.284244e+02
-1.817045e+02
-1.019408e-07
1.284244e+02
1.817045e+02
1.284244e+02
-9.927832e-08
-1.284244e+02
-1.817045e+02
1.145115e-08
-1.817045e+02
1.284244e+02
1.817045e+02
1.194396e-08
-1.284244e+02
-1.817045e+02
-1.817045e+02
1.001933e-08
-1.284244e+02
-1.817045e+02
-1.284244e+02
-1.009415e-07
1.284244e+02
-1.817045e+02
1.284244e+02
1.817045e+02
-9.978165e-08
-1.284244e+02
-1.817045e+02
-1.284244e+02
1.284244e+02
1.284244e+02
-3.365131e-06
1.817045e+02
-3.370616e-06
1.817045e+02
-3.376614e-06
-1.817045e+02
-1.817045e+02
-1.817045e+02
-3.368578e-06
-1.817045e+02
-1.670527e-07
-1.817045e+02
-1.817045e+02
-1.713376e-07
1.817045e+02
-1.677610e-07
-1.817045e+02
-1.817045e+02
1.817045e+02
-1.658783e-07
-1.817045e+02
-1.817045e+02
1.334925e-07
-1.308500e-08
1.817045e+02
-1.406016e-08
1.327395e-07
1.817045e+02
-1.817045e+02
1.357108e-07
-1.817045e+02
7.475823e-08
1.817045e+02
7.544513e-08
-1.320830e-08
-1.817045e+02
-1.817045e+02
-1.408781e-08
-1.817045e+02
7.289743e-08
7.340640e-08
-1.817045e+02
1.817045e+02
-1.817045e+02
1.341088e-07
-1.817045e+02
1.817045e+02
-1.817045e+02
1.817045e+02
-1.817045e+02
-1.817045e+02
1.817045e+02
-5.170769e-06
-1.817045e+02
1.817045e+02
-5.162734e-06
-5.154281e-06
-1.817045e+02
-1.817045e+02
-5.156681e-06
-1.284244e+02
-2.511400e-07
-1.284244e+02
-1.284244e+02
-1.817045e+02
-1.817045e+02
-1.817045e+02
-2.461610e-07
-2.421347e-07
-1.817045e+02
-1.284244e+02
1.817045e+02
-2.451803e-07
1.284244e+02
1.284244e+02
1.817045e+02
1.284244e+02
1.284244e+02
-5.907959e-06
-5.929561e-06
-5.914442e-06
-5.921792e-06
-1.817045e+02
-1.817045e+02
-1.817045e+02
1.817045e+02
-1.817045e+02
1.817045e+02
-1.817045e+02
-1.284244e+02
-1.817045e+02
-1.817045e+02
1.284244e+02
1.817045e+02
1.284244e+02
2.405404e-07
-1.284244e+02
-1.817045e+02
-6.771108e-08
1.284244e+02
1.284244e+02
-1.817045e+02
1.284244e+02
1.817045e+02
1.284244e+02
2.384026e-07
-1.284244e+02
-1.817045e+02
-1.284244e+02
-1.284244e+02
1.817045e+02
-6.819735e-08
-1.284244e+02
2.393773e-07
2.375297e-07
-3.128171e-07
1.817045e+02
-3.088905e-07
-3.150607e-07
-1.817045e+02
-1.817045e+02
-1.817045e+02
-1.817045e+02
1.817045e+02
-3.195648e-07
1.817045e+02
1.284244e+02
1.284244e+02
-3.821970e-07
1.284244e+02
1.284244e+02
-1.817045e+02
-1.284244e+02
-1.817045e+02
-3.835272e-07
-1.817045e+02
-1.284244e+02
-1.817045e+02
-1.284244e+02
-1.284244e+02
1.817045e+02
-3.721045e-07
-3.757458e-07
-1.195521e-07
-1.205752e-07
-1.817045e+02
1.329723e-07
-1.817045e+02
1.329229e-07
1.305708e-07
-1.817045e+02
1.308026e-07
-1.817045e+02
1.817045e+02
-1.817045e+02
-1.204518e-07
-1.817045e+02
-1.817045e+02
-1.817045e+02
-1.212505e-07
1.817045e+02
1.817045e+02
1.817045e+02
1.817045e+02
-1.817045e+02
-1.817045e+02
-1.817045e+02
1.817045e+02
9.296275e-07
-1.817045e+02
9.296201e-07
9.226385e-07
9.244105e-07
6.340878e-07
6.318701e-07
-1.817045e+02
6.316969e-07
1.817045e+02
-1.817045e+02
-1.817045e+02
6.302250e-07
1.817045e+02
-1.817045e+02
-4.319189e-07
-4.227470e-07
-4.348538e-07
-4.205076e-07
-1.817045e+02
1.817045e+02
-1.817045e+02
-1.817045e+02
1.817045e+02
-1.817045e+02
-1.027190e-07
1.284244e+02
-1.284244e+02
-1.284244e+02
-1.047579e-07
1.284244e+02
1.284244e+02
1.817045e+02
-1.817045e+02
-1.039966e-07
-1.284244e+02
-1.817045e+02
-1.817045e+02
1.284244e+02
1.817045e+02
-1.054414e-07
-1.284244e+02
-1.817045e+02
-1.284244e+02
-4.630002e-07
-4.702934e-07
1.284244e+02
-1.817045e+02
-1.817045e+02
1.284244e+02
1.284244e+02
-1.817045e+02
1.284244e+02
-4.518829e-07
-1.284244e+02
-1.817045e+02
1.817045e+02
-4.525716e-07
-1.284244e+02
-1.284244e+02
1.817045e+02
1.436147e-06
1.434230e-06
-1.817045e+02
-1.284244e+02
1.817045e+02
1.284244e+02
-1.284244e+02
-1.817045e+02
-1.817045e+02
-1.284244e+02
1.817045e+02
1.284244e+02
-1.284244e+02
-1.817045e+02
1.284244e+02
1.284244e+02
1.432918e-06
1.432027e-06
1.817045e+02
-1.817045e+02
1.817045e+02
-1.817045e+02
-1.817045e+02
-1.817045e+02
-4.640253e-07
-4.760739e-07
-4.643251e-07
-4.868284e-07
-4.571594e-07
1.817045e+02
-1.817045e+02
-4.588888e-07
-1.817045e+02
-1.817045e+02
1.817045e+02
-4.594126e-07
-1.817045e+02
-4.583538e-07
-1.817045e+02
1.817045e+02
-1.817045e+02
-1.817045e+02
-1.817045e+02
2.681248e-06
2.695760e-06
1.817045e+02
2.693391e-06
2.680742e-06
-4.745636e-07
-4.622370e-07
-1.284244e+02
1.817045e+02
-1.284244e+02
-4.860170e-07
-4.630459e-07
-1.284244e+02
1.284244e+02
1.284244e+02
-1.284244e+02
-1.817045e+02
-1.817045e+02
1.817045e+02
-1.817045e+02
1.284244e+02
-1.817045e+02
1.284244e+02
1.817045e+02
1.817045e+02
-1.706000e-07
-1.733213e-07
-1.726784e-07
-1.817045e+02
-1.817045e+02
-1.817045e+02
-1.817045e+02
-1.738643e-07
2.546701e-06
-1.817045e+02
2.543254e-06
1.817045e+02
-1.817045e+02
-1.817045e+02
2.542630e-06
1.817045e+02
-1.817045e+02
2.544927e-06
9.253386e-07
-1.817045e+02
1.817045e+02
9.237285e-07
-1.817045e+02
1.817045e+02
-1.817045e+02
-1.817045e+02
9.222373e-07
9.225541e-07
-1.817045e+02
-1.284244e+02
-8.558459e-07
1.284244e+02
1.817045e+02
1.284244e+02
-8.570283e-07
-1.284244e+02
-1.817045e+02
4.602383e-06
1.817045e+02
-1.817045e+02
1.817045e+02
-1.817045e+02
4.597028e-06
-1.817045e+02
-1.817045e+02
4.619069e-06
4.628573e-06
-1.817045e+02
-1.817045e+02
1.284244e+02
1.284244e+02
-1.817045e+02
-2.482195e-07
-2.524060e-07
-1.817045e+02
-1.284244e+02
-2.514644e-07
-1.284244e+02
-2.521027e-07
1.284244e+02
1.817045e+02
-1.284244e+02
-1.284244e+02
1.817045e+02
1.284244e+02
3.984616e-06
3.984295e-06
-1.284244e+02
1.817045e+02
3.987885e-06
3.984806e-06
1.284244e+02
-1.817045e+02
-1.284244e+02
-1.817045e+02
1.284244e+02
-1.284244e+02
1.817045e+02
-1.817045e+02
-1.284244e+02
-1.817045e+02
1.284244e+02
1.284244e+02
-1.817045e+02
-1.496159e-06
-1.817045e+02
-1.496436e-06
1.817045e+02
-1.817045e+02
1.817045e+02
-1.559911e-06
-1.817045e+02
-1.558799e-06
-1.817045e+02
1.817045e+02
-1.817045e+02
-1.560325e-06
-1.558047e-06
-1.817045e+02
5.497811e-06
-1.817045e+02
-1.817045e+02
5.492168e-06
-1.817045e+02
5.493577e-06
1.817045e+02
5.495017e-06
1.817045e+02
-1.817045e+02
-1.817045e+02
-3.216340e-07
1.817045e+02
-1.817045e+02
-1.817045e+02
-3.183490e-07
1.817045e+02
-3.149725e-07
-3.189654e-07
-1.817045e+02
1.817045e+02
5.414981e-06
-1.817045e+02
-1.817045e+02
1.817045e+02
5.401920e-06
-1.817045e+02
5.375378e-06
5.382664e-06
-1.817045e+02
-1.284244e+02
-2.450577e-06
1.284244e+02
1.284244e+02
-1.284244e+02
-1.817045e+02
1.817045e+02
-2.447604e-06
-1.817045e+02
-1.817045e+02
-1.817045e+02
1.817045e+02
-1.817045e+02
2.681456e-06
2.690294e-06
1.817045e+02
2.679856e-06
2.690452e-06
-1.284244e+02
-1.817045e+02
1.817045e+02
6.758294e-06
-1.817045e+02
-1.817045e+02
1.817045e+02
6.749124e-06
-1.817045e+02
-1.284244e+02
6.752760e-06
1.284244e+02
-1.284244e+02
-1.284244e+02
6.755471e-06
1.284244e+02
1.284244e+02
1.284244e+02
-1.284244e+02
-3.773148e-07
1.284244e+02
1.284244e+02
-3.796516e-07
-1.284244e+02
1.817045e+02
-1.817045e+02
-1.284244e+02
-1.817045e+02
1.817045e+02
1.284244e+02
-1.817045e+02
-1.284244e+02
-1.817045e+02