# vtk DataFile Version 3.0
Unstructured Grid Example
ASCII
DATASET UNSTRUCTURED_GRID
POINTS 832 float
-1	 0	 0
-1	 0	 3.750000e-01
-1	 0	 7.500000e-01
-1	 0	 1.125000e+00
-1	 0	 1.500000e+00
-1	 0	 1.875000e+00
-1	 0	 2.250000e+00
-1	 0	 2.625000e+00
-1	 0	 3
-9.875000e-01	 0	 0
-9.875000e-01	 0	 1.500000e+00
-9.875000e-01	 0	 3
-9.875000e-01	 0	 2.250000e+00
-9.875000e-01	 0	 7.500000e-01
-9.833054e-01	 -1.819631e-01	 7.500000e-01
-9.833054e-01	 -1.819631e-01	 0
-9.833054e-01	 -1.819631e-01	 1.500000e+00
-9.833054e-01	 -1.819631e-01	 3.000000e+00
-9.833054e-01	 1.819631e-01	 2.250000e+00
-9.833054e-01	 1.819631e-01	 0
-9.833054e-01	 1.819631e-01	 1.500000e+00
-9.833054e-01	 1.819631e-01	 3.000000e+00
-9.833054e-01	 1.819631e-01	 7.500000e-01
-9.833054e-01	 -1.819631e-01	 2.250000e+00
-9.750000e-01	 0	 7.500000e-01
-9.750000e-01	 0	 1.125000e+00
-9.750000e-01	 0	 0
-9.750000e-01	 0	 3.750000e-01
-9.750000e-01	 0	 1.875000e+00
-9.750000e-01	 0	 2.625000e+00
-9.750000e-01	 0	 3
-9.750000e-01	 0	 1.500000e+00
-9.750000e-01	 0	 2.250000e+00
-9.625000e-01	 0	 1.500000e+00
-9.625000e-01	 0	 2.250000e+00
-9.625000e-01	 0	 0
-9.625000e-01	 0	 7.500000e-01
-9.625000e-01	 0	 3
-9.587227e-01	 -1.774140e-01	 0
-9.587227e-01	 -1.774140e-01	 3.000000e+00
-9.587227e-01	 -1.774140e-01	 1.500000e+00
-9.587227e-01	 1.774140e-01	 0
-9.587227e-01	 1.774140e-01	 3.000000e+00
-9.587227e-01	 1.774140e-01	 1.500000e+00
-9.587227e-01	 1.774140e-01	 7.500000e-01
-9.587227e-01	 -1.774140e-01	 7.500000e-01
-9.587227e-01	 -1.774140e-01	 2.250000e+00
-9.587227e-01	 1.774140e-01	 2.250000e+00
-9.500000e-01	 0	 0
-9.500000e-01	 0	 3.750000e-01
-9.500000e-01	 0	 1.125000e+00
-9.500000e-01	 0	 1.500000e+00
-9.500000e-01	 0	 1.875000e+00
-9.500000e-01	 0	 2.250000e+00
-9.500000e-01	 0	 2.625000e+00
-9.500000e-01	 0	 3
-9.500000e-01	 0	 7.500000e-01
-9.341401e-01	 -1.728649e-01	 1.500000e+00
-9.341401e-01	 -1.728649e-01	 0
-9.341401e-01	 -1.728649e-01	 3.000000e+00
-9.341401e-01	 1.728649e-01	 2.250000e+00
-9.341401e-01	 1.728649e-01	 0
-9.341401e-01	 1.728649e-01	 1.500000e+00
-9.341401e-01	 1.728649e-01	 3.000000e+00
-9.341401e-01	 -1.728649e-01	 7.500000e-01
-9.341401e-01	 -1.728649e-01	 2.250000e+00
-9.341401e-01	 1.728649e-01	 7.500000e-01
-9.297883e-01	 -3.680947e-01	 1.125000e+00
-9.297883e-01	 -3.680947e-01	 0
-9.297883e-01	 -3.680947e-01	 7.500000e-01
-9.297883e-01	 -3.680947e-01	 1.500000e+00
-9.297883e-01	 -3.680947e-01	 1.875000e+00
-9.297883e-01	 -3.680947e-01	 2.250000e+00
-9.297883e-01	 -3.680947e-01	 2.625000e+00
-9.297883e-01	 -3.680947e-01	 3.000000e+00
-9.297883e-01	 -3.680947e-01	 3.750000e-01
-9.297883e-01	 3.680947e-01	 3.750000e-01
-9.297883e-01	 3.680947e-01	 2.250000e+00
-9.297883e-01	 3.680947e-01	 2.625000e+00
-9.297883e-01	 3.680947e-01	 0
-9.297883e-01	 3.680947e-01	 7.500000e-01
-9.297883e-01	 3.680947e-01	 1.500000e+00
-9.297883e-01	 3.680947e-01	 1.875000e+00
-9.297883e-01	 3.680947e-01	 3.000000e+00
-9.297883e-01	 3.680947e-01	 1.125000e+00
-9.181659e-01	 3.634935e-01	 7.500000e-01
-9.181659e-01	 -3.634935e-01	 0
-9.181659e-01	 -3.634935e-01	 7.500000e-01
-9.181659e-01	 -3.634935e-01	 2.250000e+00
-9.181659e-01	 -3.634935e-01	 3
-9.181659e-01	 3.634935e-01	 0
-9.181659e-01	 3.634935e-01	 2.250000e+00
-9.181659e-01	 3.634935e-01	 3
-9.181659e-01	 -3.634935e-01	 1.500000e+00
-9.181659e-01	 3.634935e-01	 1.500000e+00
-9.065436e-01	 -3.588923e-01	 1.125000e+00
-9.065436e-01	 -3.588923e-01	 2.625000e+00
-9.065436e-01	 -3.588923e-01	 0
-9.065436e-01	 -3.588923e-01	 3.750000e-01
-9.065436e-01	 -3.588923e-01	 1.500000e+00
-9.065436e-01	 -3.588923e-01	 3
-9.065436e-01	 3.588923e-01	 2.625000e+00
-9.065436e-01	 3.588923e-01	 1.125000e+00
-9.065436e-01	 3.588923e-01	 0
-9.065436e-01	 3.588923e-01	 3.750000e-01
-9.065436e-01	 3.588923e-01	 3
-9.065436e-01	 -3.588923e-01	 7.500000e-01
-9.065436e-01	 -3.588923e-01	 1.875000e+00
-9.065436e-01	 3.588923e-01	 1.875000e+00
-9.065436e-01	 3.588923e-01	 1.500000e+00
-9.065436e-01	 -3.588923e-01	 2.250000e+00
-9.065436e-01	 3.588923e-01	 7.500000e-01
-9.065436e-01	 3.588923e-01	 2.250000e+00
-8.949212e-01	 3.542912e-01	 1.500000e+00
-8.949212e-01	 -3.542912e-01	 1.500000e+00
-8.949212e-01	 -3.542912e-01	 0
-8.949212e-01	 -3.542912e-01	 3.000000e+00
-8.949212e-01	 3.542912e-01	 0
-8.949212e-01	 3.542912e-01	 3.000000e+00
-8.949212e-01	 -3.542912e-01	 2.250000e+00
-8.949212e-01	 -3.542912e-01	 7.500000e-01
-8.949212e-01	 3.542912e-01	 2.250000e+00
-8.949212e-01	 3.542912e-01	 7.500000e-01
-8.832989e-01	 -3.496900e-01	 1.125000e+00
-8.832989e-01	 -3.496900e-01	 1.875000e+00
-8.832989e-01	 -3.496900e-01	 2.625000e+00
-8.832989e-01	 -3.496900e-01	 2.250000e+00
-8.832989e-01	 3.496900e-01	 1.125000e+00
-8.832989e-01	 -3.496900e-01	 0
-8.832989e-01	 -3.496900e-01	 3.000000e+00
-8.832989e-01	 -3.496900e-01	 3.750000e-01
-8.832989e-01	 -3.496900e-01	 7.500000e-01
-8.832989e-01	 3.496900e-01	 3.750000e-01
-8.832989e-01	 3.496900e-01	 7.500000e-01
-8.832989e-01	 3.496900e-01	 2.250000e+00
-8.832989e-01	 3.496900e-01	 2.625000e+00
-8.832989e-01	 3.496900e-01	 0
-8.832989e-01	 3.496900e-01	 1.875000e+00
-8.832989e-01	 3.496900e-01	 3.000000e+00
-8.832989e-01	 -3.496900e-01	 1.500000e+00
-8.832989e-01	 3.496900e-01	 1.500000e+00
-8.369955e-01	 -5.472098e-01	 0
-8.369955e-01	 -5.472098e-01	 7.500000e-01
-8.369955e-01	 -5.472098e-01	 1.500000e+00
-8.369955e-01	 -5.472098e-01	 2.250000e+00
-8.369955e-01	 -5.472098e-01	 3
-8.369955e-01	 5.472098e-01	 0
-8.369955e-01	 5.472098e-01	 7.500000e-01
-8.369955e-01	 5.472098e-01	 1.500000e+00
-8.369955e-01	 5.472098e-01	 2.250000e+00
-8.369955e-01	 5.472098e-01	 3
-8.160706e-01	 -5.335295e-01	 7.500000e-01
-8.160706e-01	 5.335295e-01	 7.500000e-01
-8.160706e-01	 -5.335295e-01	 1.500000e+00
-8.160706e-01	 -5.335295e-01	 2.250000e+00
-8.160706e-01	 5.335295e-01	 1.500000e+00
-8.160706e-01	 5.335295e-01	 2.250000e+00
-8.160706e-01	 -5.335295e-01	 0
-8.160706e-01	 -5.335295e-01	 3.000000e+00
-8.160706e-01	 5.335295e-01	 0
-8.160706e-01	 5.335295e-01	 3.000000e+00
-7.951457e-01	 -5.198493e-01	 7.500000e-01
-7.951457e-01	 5.198493e-01	 7.500000e-01
-7.951457e-01	 -5.198493e-01	 0
-7.951457e-01	 -5.198493e-01	 1.500000e+00
-7.951457e-01	 -5.198493e-01	 2.250000e+00
-7.951457e-01	 -5.198493e-01	 3
-7.951457e-01	 5.198493e-01	 0
-7.951457e-01	 5.198493e-01	 1.500000e+00
-7.951457e-01	 5.198493e-01	 2.250000e+00
-7.951457e-01	 5.198493e-01	 3
-7.071068e-01	 -7.071068e-01	 0
-7.071068e-01	 -7.071068e-01	 3.750000e-01
-7.071068e-01	 -7.071068e-01	 7.500000e-01
-7.071068e-01	 -7.071068e-01	 1.125000e+00
-7.071068e-01	 -7.071068e-01	 1.500000e+00
-7.071068e-01	 -7.071068e-01	 1.875000e+00
-7.071068e-01	 -7.071068e-01	 2.250000e+00
-7.071068e-01	 -7.071068e-01	 2.625000e+00
-7.071068e-01	 -7.071068e-01	 3.000000e+00
-7.071068e-01	 7.071068e-01	 0
-7.071068e-01	 7.071068e-01	 3.750000e-01
-7.071068e-01	 7.071068e-01	 7.500000e-01
-7.071068e-01	 7.071068e-01	 1.125000e+00
-7.071068e-01	 7.071068e-01	 1.500000e+00
-7.071068e-01	 7.071068e-01	 1.875000e+00
-7.071068e-01	 7.071068e-01	 2.250000e+00
-7.071068e-01	 7.071068e-01	 2.625000e+00
-7.071068e-01	 7.071068e-01	 3.000000e+00
-6.982679e-01	 -6.982679e-01	 7.500000e-01
-6.982679e-01	 6.982679e-01	 7.500000e-01
-6.982679e-01	 -6.982679e-01	 0
-6.982679e-01	 -6.982679e-01	 2.250000e+00
-6.982679e-01	 -6.982679e-01	 3.000000e+00
-6.982679e-01	 6.982679e-01	 0
-6.982679e-01	 6.982679e-01	 2.250000e+00
-6.982679e-01	 6.982679e-01	 3.000000e+00
-6.982679e-01	 -6.982679e-01	 1.500000e+00
-6.982679e-01	 6.982679e-01	 1.500000e+00
-6.894291e-01	 -6.894291e-01	 3.750000e-01
-6.894291e-01	 -6.894291e-01	 2.625000e+00
-6.894291e-01	 -6.894291e-01	 0
-6.894291e-01	 -6.894291e-01	 1.500000e+00
-6.894291e-01	 -6.894291e-01	 2.250000e+00
-6.894291e-01	 -6.894291e-01	 3.000000e+00
-6.894291e-01	 6.894291e-01	 3.750000e-01
-6.894291e-01	 6.894291e-01	 2.625000e+00
-6.894291e-01	 -6.894291e-01	 1.875000e+00
-6.894291e-01	 6.894291e-01	 1.875000e+00
-6.894291e-01	 -6.894291e-01	 7.500000e-01
-6.894291e-01	 -6.894291e-01	 1.125000e+00
-6.894291e-01	 6.894291e-01	 0
-6.894291e-01	 6.894291e-01	 1.500000e+00
-6.894291e-01	 6.894291e-01	 2.250000e+00
-6.894291e-01	 6.894291e-01	 3.000000e+00
-6.894291e-01	 6.894291e-01	 7.500000e-01
-6.894291e-01	 6.894291e-01	 1.125000e+00
-6.805903e-01	 6.805903e-01	 7.500000e-01
-6.805903e-01	 -6.805903e-01	 7.500000e-01
-6.805903e-01	 -6.805903e-01	 0
-6.805903e-01	 -6.805903e-01	 1.500000e+00
-6.805903e-01	 -6.805903e-01	 3.000000e+00
-6.805903e-01	 6.805903e-01	 0
-6.805903e-01	 6.805903e-01	 1.500000e+00
-6.805903e-01	 6.805903e-01	 3.000000e+00
-6.805903e-01	 6.805903e-01	 2.250000e+00
-6.805903e-01	 -6.805903e-01	 2.250000e+00
-6.717514e-01	 -6.717514e-01	 2.625000e+00
-6.717514e-01	 6.717514e-01	 2.625000e+00
-6.717514e-01	 -6.717514e-01	 0
-6.717514e-01	 -6.717514e-01	 3.750000e-01
-6.717514e-01	 -6.717514e-01	 7.500000e-01
-6.717514e-01	 -6.717514e-01	 1.125000e+00
-6.717514e-01	 -6.717514e-01	 1.875000e+00
-6.717514e-01	 -6.717514e-01	 3.000000e+00
-6.717514e-01	 -6.717514e-01	 2.250000e+00
-6.717514e-01	 6.717514e-01	 1.500000e+00
-6.717514e-01	 6.717514e-01	 0
-6.717514e-01	 6.717514e-01	 3.750000e-01
-6.717514e-01	 6.717514e-01	 7.500000e-01
-6.717514e-01	 6.717514e-01	 1.125000e+00
-6.717514e-01	 6.717514e-01	 1.875000e+00
-6.717514e-01	 6.717514e-01	 3.000000e+00
-6.717514e-01	 -6.717514e-01	 1.500000e+00
-6.717514e-01	 6.717514e-01	 2.250000e+00
-5.472098e-01	 -8.369955e-01	 0
-5.472098e-01	 -8.369955e-01	 7.500000e-01
-5.472098e-01	 -8.369955e-01	 1.500000e+00
-5.472098e-01	 -8.369955e-01	 2.250000e+00
-5.472098e-01	 -8.369955e-01	 3
-5.472098e-01	 8.369955e-01	 0
-5.472098e-01	 8.369955e-01	 7.500000e-01
-5.472098e-01	 8.369955e-01	 1.500000e+00
-5.472098e-01	 8.369955e-01	 2.250000e+00
-5.472098e-01	 8.369955e-01	 3
-5.335295e-01	 -8.160706e-01	 1.500000e+00
-5.335295e-01	 -8.160706e-01	 2.250000e+00
-5.335295e-01	 8.160706e-01	 0
-5.335295e-01	 8.160706e-01	 3.000000e+00
[...]
POINT_DATA 832
VECTORS displacement float
0	 0	 -7.063156e-05
-2.340681e-04	 5.998402e-05	 -6.463480e-05
-4.284693e-04	 1.116111e-04	 -4.994405e-05
-5.650903e-04	 1.448143e-04	 -2.677260e-05
-6.059471e-04	 1.578420e-04	 9.160906e-12
-5.650902e-04	 1.448143e-04	 2.677261e-05
-4.284692e-04	 1.116112e-04	 4.994405e-05
-2.340680e-04	 5.998406e-05	 6.463479e-05
0	 0	 7.063154e-05
0	 0	 -6.234552e-05
-6.072512e-04	 1.797584e-04	 7.217749e-12
0	 0	 6.234551e-05
-4.293914e-04	 1.271084e-04	 4.408493e-05
-4.293915e-04	 1.271084e-04	 -4.408494e-05
-1.740022e-04	 1.273706e-04	 -1.767088e-05
0	 0	 -2.499042e-05
-2.460761e-04	 1.801294e-04	 1.889352e-11
0	 0	 2.499038e-05
-5.678364e-04	 1.414699e-04	 6.880096e-05
0	 0	 -9.729925e-05
-8.030419e-04	 2.000687e-04	 -3.517957e-12
0	 0	 9.729926e-05
-5.678364e-04	 1.414699e-04	 -6.880096e-05
-1.740019e-04	 1.273707e-04	 1.767088e-05
-4.299842e-04	 1.425445e-04	 -3.825071e-05
-5.667486e-04	 1.854095e-04	 -2.081848e-05
0	 0	 -5.409468e-05
-2.347550e-04	 7.679913e-05	 -5.026028e-05
-5.667485e-04	 1.854096e-04	 2.081849e-05
-2.347549e-04	 7.679919e-05	 5.026027e-05
0	 0	 5.409466e-05
-6.080894e-04	 2.015884e-04	 5.288704e-12
-4.299841e-04	 1.425446e-04	 3.825071e-05
-6.086891e-04	 2.232034e-04	 3.356090e-12
-4.304081e-04	 1.578287e-04	 3.240547e-05
0	 0	 -4.582827e-05
-4.304082e-04	 1.578286e-04	 -3.240547e-05
0	 0	 4.582826e-05
0	 0	 -1.934697e-05
0	 0	 1.934694e-05
-2.562183e-04	 2.334366e-04	 1.145389e-11
0	 0	 -7.492857e-05
0	 0	 7.492857e-05
-8.021799e-04	 2.099913e-04	 -2.397559e-12
-5.672268e-04	 1.484862e-04	 -5.298250e-05
-1.811738e-04	 1.650645e-04	 -1.368036e-05
-1.811736e-04	 1.650646e-04	 1.368036e-05
-5.672269e-04	 1.484863e-04	 5.298250e-05
0	 0	 -3.752203e-05
-2.348509e-04	 9.348582e-05	 -3.584956e-05
-5.669801e-04	 2.256948e-04	 -1.484937e-05
-6.087520e-04	 2.449669e-04	 1.405760e-12
-5.669800e-04	 2.256949e-04	 1.484937e-05
-4.304526e-04	 1.732178e-04	 2.653208e-05
-2.348508e-04	 9.348590e-05	 3.584955e-05
0	 0	 3.752202e-05
-4.304527e-04	 1.732177e-04	 -2.653208e-05
-2.659276e-04	 2.872516e-04	 4.009721e-12
0	 0	 -1.371589e-05
0	 0	 1.371588e-05
-5.650120e-04	 1.552415e-04	 3.717072e-05
0	 0	 -5.256734e-05
-7.990476e-04	 2.195446e-04	 -1.270340e-12
0	 0	 5.256734e-05
-1.880393e-04	 2.031175e-04	 -9.698599e-06
-1.880391e-04	 2.031176e-04	 9.698597e-06
-5.650120e-04	 1.552414e-04	 -3.717072e-05
1.691625e-04	 2.792000e-04	 1.225450e-05
0	 0	 3.233541e-05
1.273285e-04	 2.138201e-04	 2.286460e-05
1.800698e-04	 3.023874e-04	 2.012582e-11
1.691627e-04	 2.792001e-04	 -1.225447e-05
1.273287e-04	 2.138202e-04	 -2.286460e-05
7.006952e-05	 1.156485e-04	 -2.958495e-05
0	 0	 -3.233545e-05
7.006934e-05	 1.156484e-04	 2.958493e-05
-2.866421e-04	 8.110765e-05	 -8.309066e-05
-5.249648e-04	 1.473579e-04	 6.426048e-05
-2.866422e-04	 8.110774e-05	 8.309068e-05
0	 0	 -9.087802e-05
-5.249646e-04	 1.473578e-04	 -6.426048e-05
-7.424122e-04	 2.083955e-04	 -1.616241e-11
-6.920155e-04	 1.958114e-04	 3.441727e-05
0	 0	 9.087805e-05
-6.920154e-04	 1.958113e-04	 -3.441729e-05
-5.289226e-04	 1.403466e-04	 -5.682732e-05
0	 0	 2.851701e-05
1.201135e-04	 2.333558e-04	 2.016458e-05
1.201137e-04	 2.333559e-04	 -2.016458e-05
0	 0	 -2.851704e-05
0	 0	 -8.036595e-05
-5.289227e-04	 1.403467e-04	 5.682732e-05
0	 0	 8.036598e-05
1.698662e-04	 3.300150e-04	 1.605752e-11
-7.480096e-04	 1.984802e-04	 -1.317293e-11
1.500050e-04	 3.299900e-04	 9.518042e-06
6.213422e-05	 1.366864e-04	 -2.297858e-05
0	 0	 2.471624e-05
6.213404e-05	 1.366863e-04	 2.297856e-05
1.594871e-04	 3.574606e-04	 1.201155e-11
0	 0	 -2.471627e-05
-2.906132e-04	 7.332046e-05	 6.489541e-05
-7.016022e-04	 1.770111e-04	 -2.688056e-05
0	 0	 -6.989035e-05
-2.906131e-04	 7.332036e-05	 -6.489539e-05
0	 0	 6.989037e-05
1.127743e-04	 2.527628e-04	 1.747703e-05
1.500051e-04	 3.299901e-04	 -9.518026e-06
-7.016023e-04	 1.770112e-04	 2.688055e-05
-7.531187e-04	 1.884187e-04	 -1.020065e-11
1.127745e-04	 2.527628e-04	 -1.747703e-05
-5.325352e-04	 1.332321e-04	 -4.941995e-05
-5.325354e-04	 1.332322e-04	 4.941994e-05
-7.579901e-04	 1.784135e-04	 -7.226247e-12
1.491308e-04	 3.846109e-04	 7.960110e-12
0	 0	 2.091591e-05
0	 0	 -2.091593e-05
0	 0	 -5.939766e-05
0	 0	 5.939767e-05
1.054515e-04	 2.719610e-04	 -1.478979e-05
1.054513e-04	 2.719609e-04	 1.478979e-05
-5.359800e-04	 1.261574e-04	 4.200049e-05
-5.359799e-04	 1.261573e-04	 -4.200049e-05
1.303886e-04	 3.801583e-04	 6.780589e-06
1.303888e-04	 3.801584e-04	 -6.780581e-06
5.400887e-05	 1.574668e-04	 -1.636979e-05
9.790768e-05	 2.912062e-04	 -1.208891e-05
-7.097488e-04	 1.578506e-04	 -1.932442e-05
0	 0	 1.709629e-05
0	 0	 -1.709630e-05
5.400869e-05	 1.574667e-04	 1.636977e-05
9.790744e-05	 2.912061e-04	 1.208891e-05
-2.939875e-04	 6.538382e-05	 -4.665327e-05
-5.390612e-04	 1.188667e-04	 -3.454820e-05
-5.390613e-04	 1.188669e-04	 3.454819e-05
-2.939877e-04	 6.538393e-05	 4.665328e-05
0	 0	 -4.885852e-05
-7.097489e-04	 1.578507e-04	 1.932442e-05
0	 0	 4.885853e-05
1.384622e-04	 4.118277e-04	 3.875710e-12
-7.623478e-04	 1.681030e-04	 -4.226747e-12
0	 0	 8.094866e-05
3.521589e-04	 3.445283e-04	 5.723936e-05
4.980281e-04	 4.872366e-04	 1.491426e-11
3.521591e-04	 3.445284e-04	 -5.723936e-05
0	 0	 -8.094869e-05
0	 0	 -5.646015e-05
-3.506450e-04	 7.123123e-05	 -3.992337e-05
-4.958871e-04	 1.007363e-04	 -2.472570e-11
-3.506452e-04	 7.123140e-05	 3.992337e-05
0	 0	 5.646020e-05
3.405898e-04	 3.630979e-04	 4.416504e-05
-3.679104e-04	 4.547017e-05	 -3.092113e-05
4.816669e-04	 5.134980e-04	 9.091461e-12
3.405900e-04	 3.630980e-04	 -4.416504e-05
-5.203041e-04	 6.430467e-05	 -1.586050e-11
-3.679106e-04	 4.547036e-05	 3.092113e-05
0	 0	 6.245878e-05
0	 0	 -6.245881e-05
0	 0	 -4.372907e-05
0	 0	 4.372910e-05
3.278289e-04	 3.810751e-04	 3.109442e-05
-3.845773e-04	 1.903844e-05	 -2.192531e-05
0	 0	 4.397415e-05
4.636202e-04	 5.389216e-04	 3.264080e-12
3.278291e-04	 3.810752e-04	 -3.109443e-05
0	 0	 -4.397416e-05
0	 0	 -3.100707e-05
-5.438745e-04	 2.692456e-05	 -6.985401e-12
-3.845775e-04	 1.903863e-05	 2.192531e-05
0	 0	 3.100708e-05
0	 0	 9.758691e-05
2.249168e-04	 2.264254e-04	 8.929844e-05
4.114450e-04	 4.142508e-04	 6.900437e-05
5.429973e-04	 5.466393e-04	 3.698863e-05
5.818712e-04	 5.858391e-04	 2.846952e-12
5.429973e-04	 5.466393e-04	 -3.698862e-05
4.114451e-04	 4.142508e-04	 -6.900437e-05
2.249169e-04	 2.264254e-04	 -8.929844e-05
0	 0	 -9.758692e-05
0	 0	 1.218876e-06
-5.785113e-05	 -6.348614e-05	 1.115349e-06
-1.076825e-04	 -1.179913e-04	 8.618596e-07
-1.396651e-04	 -1.532690e-04	 4.619720e-07
-1.522862e-04	 -1.668648e-04	 -2.288599e-11
-1.396653e-04	 -1.532689e-04	 -4.620025e-07
-1.076827e-04	 -1.179911e-04	 -8.618614e-07
-5.785129e-05	 -6.348601e-05	 -1.115322e-06
0	 0	 -1.218834e-06
4.121344e-04	 4.153164e-04	 6.101359e-05
-1.227717e-04	 -1.331024e-04	 7.620972e-07
0	 0	 8.628624e-05
4.121345e-04	 4.153164e-04	 -6.101359e-05
0	 0	 -8.628625e-05
0	 0	 1.077786e-06
-1.227719e-04	 -1.331022e-04	 -7.620990e-07
0	 0	 -1.077753e-06
5.828461e-04	 5.873461e-04	 2.141369e-12
-1.736255e-04	 -1.882350e-04	 -1.867812e-11
2.253733e-04	 2.272880e-04	 6.969324e-05
2.253733e-04	 2.272880e-04	 -6.969324e-05
0	 0	 7.502500e-05
5.834331e-04	 5.884633e-04	 1.436157e-12
4.125495e-04	 4.161064e-04	 -5.305069e-05
0	 0	 -7.502500e-05
-7.414497e-05	 -7.979645e-05	 8.705789e-07
-7.414514e-05	 -7.979633e-05	 -8.705616e-07
5.440993e-04	 5.487218e-04	 -2.886788e-05
-1.790021e-04	 -1.926455e-04	 -3.606125e-07
4.125495e-04	 4.161064e-04	 5.305068e-05
5.440992e-04	 5.487218e-04	 2.886789e-05
0	 0	 9.371890e-07
-1.948936e-04	 -2.095244e-04	 -1.448866e-11
-1.378107e-04	 -1.481560e-04	 -6.626846e-07
0	 0	 -9.371637e-07
-1.378105e-04	 -1.481562e-04	 6.626828e-07
-1.790019e-04	 -1.926456e-04	 3.605915e-07
-1.527099e-04	 -1.630679e-04	 5.631519e-07
4.128551e-04	 4.167834e-04	 4.507844e-05
0	 0	 6.375055e-05
5.838653e-04	 5.894207e-04	 7.297985e-13
0	 0	 -6.375055e-05
0	 0	 7.964268e-07
-2.159646e-04	 -2.306128e-04	 -1.029479e-11
0	 0	 -7.964099e-07
-1.527102e-04	 -1.630678e-04	 -5.631537e-07
4.128552e-04	 4.167833e-04	 -4.507845e-05
2.253634e-04	 2.276812e-04	 -5.004555e-05
-9.032346e-05	 -9.597944e-05	 -6.252701e-07
0	 0	 5.242577e-05
2.253633e-04	 2.276812e-04	 5.004554e-05
4.128393e-04	 4.171411e-04	 3.707062e-05
5.440752e-04	 5.496711e-04	 2.072954e-05
5.440753e-04	 5.496710e-04	 -2.072954e-05
0	 0	 -5.242577e-05
4.128394e-04	 4.171410e-04	 -3.707062e-05
-2.371585e-04	 -2.518127e-04	 -6.070189e-12
0	 0	 6.550363e-07
-9.032330e-05	 -9.597956e-05	 6.252780e-07
-1.676963e-04	 -1.780586e-04	 4.631767e-07
-2.180598e-04	 -2.317151e-04	 2.589912e-07
-2.180600e-04	 -2.317150e-04	 -2.590028e-07
0	 0	 -6.550278e-07
5.838431e-04	 5.899266e-04	 2.047954e-14
-1.676965e-04	 -1.780584e-04	 -4.631785e-07
0	 0	 8.237977e-05
3.464160e-04	 3.610007e-04	 5.825129e-05
4.899063e-04	 5.105320e-04	 -9.713424e-12
3.464160e-04	 3.610006e-04	 -5.825129e-05
0	 0	 -8.237975e-05
0	 0	 5.850039e-05
7.985800e-05	 -3.595491e-04	 4.136601e-05
1.129362e-04	 -5.084791e-04	 -1.487382e-11
7.985786e-05	 -3.595490e-04	 -4.136601e-05
0	 0	 -5.850036e-05
5.152680e-04	 4.947742e-04	 -6.476930e-12
3.643495e-04	 3.498581e-04	 -4.494862e-05
0	 0	 4.530356e-05
0	 0	 -4.530355e-05
7.714889e-05	 -5.324952e-04	 -9.744311e-12
5.455243e-05	 -3.765309e-04	 -3.203445e-05
3.643495e-04	 3.498582e-04	 4.494862e-05
0	 0	 6.356695e-05
0	 0	 -6.356694e-05
5.455258e-05	 -3.765310e-04	 3.203445e-05
2.856149e-05	 -3.928844e-04	 2.270940e-05
3.816736e-04	 3.375086e-04	 3.164982e-05
0	 0	 4.475960e-05
5.397680e-04	 4.773092e-04	 -3.242447e-12
3.816736e-04	 3.375085e-04	 -3.164982e-05
0	 0	 -4.475960e-05
0	 0	 3.211594e-05
4.039193e-05	 -5.556224e-04	 -4.605907e-12
2.856132e-05	 -3.928844e-04	 -2.270940e-05
0	 0	 -3.211594e-05
2.841736e-04	 1.864523e-04	 1.311515e-05
2.028466e-04	 -6.964575e-04	 3.473452e-05
0	 0	 3.460804e-05
2.175642e-04	 1.404443e-04	 2.447157e-05
3.076823e-04	 1.986181e-04	 -1.688214e-11
2.841736e-04	 1.864522e-04	 -1.311517e-05
0	 0	 -3.460801e-05
0	 0	 9.171514e-05
1.527449e-04	 -5.283095e-04	 6.485239e-05
2.160138e-04	 -7.471425e-04	 -2.025282e-12
2.028465e-04	 -6.964575e-04	 -3.473452e-05
1.527448e-04	 -5.283096e-04	 -6.485240e-05
8.402176e-05	 -2.884821e-04	 -8.385655e-05
0	 0	 -9.171514e-05
1.177086e-04	 7.723112e-05	 3.166280e-05
2.175642e-04	 1.404441e-04	 -2.447157e-05
1.177085e-04	 7.723097e-05	 -3.166278e-05
8.402181e-05	 -2.884821e-04	 8.385655e-05
3.350714e-04	 1.885508e-04	 -1.380095e-11
2.067852e-04	 -7.524869e-04	 -1.825988e-12
2.369313e-04	 1.333256e-04	 2.158553e-05
0	 0	 3.052656e-05
2.369312e-04	 1.333254e-04	 -2.158553e-05
0	 0	 -3.052653e-05
0	 0	 8.110440e-05
1.462192e-04	 -5.320886e-04	 5.734947e-05
1.462191e-04	 -5.320886e-04	 -5.734947e-05
0	 0	 -8.110440e-05
2.561669e-04	 1.260740e-04	 -1.871260e-05
1.395869e-04	 -5.355192e-04	 -4.987264e-05
1.853085e-04	 -7.055690e-04	 2.712708e-05
7.675727e-05	 -2.922563e-04	 -6.549057e-05
0	 0	 2.646362e-05
1.385590e-04	 6.939230e-05	 2.460107e-05
0	 0	 -2.646361e-05
3.622748e-04	 1.782957e-04	 -1.073741e-11
0	 0	 7.053057e-05
7.675733e-05	 -2.922562e-04	 6.549057e-05
1.974058e-04	 -7.573385e-04	 -1.626515e-12
0	 0	 -7.053057e-05
3.345109e-04	 1.675277e-04	 1.019009e-05
3.345109e-04	 1.675276e-04	 -1.019010e-05
2.561670e-04	 1.260742e-04	 1.871260e-05
1.395870e-04	 -5.355192e-04	 4.987264e-05
1.853085e-04	 -7.055690e-04	 -2.712708e-05
1.385589e-04	 6.939215e-05	 -2.460106e-05
3.891842e-04	 1.680576e-04	 -7.669550e-12
2.751948e-04	 1.188346e-04	 -1.583968e-05
1.329892e-04	 -5.387821e-04	 -4.238374e-05
0	 0	 5.993966e-05
0	 0	 -5.993966e-05
1.880753e-04	 -7.619529e-04	 -1.428849e-12
0	 0	 2.240070e-05
0	 0	 -2.240069e-05
2.751948e-04	 1.188348e-04	 1.583968e-05
1.329894e-04	 -5.387821e-04	 4.238374e-05
3.842173e-04	 1.481083e-04	 7.263542e-06
0	 0	 1.831732e-05
3.842173e-04	 1.481081e-04	 -7.263551e-06
0	 0	 -1.831731e-05
4.161526e-04	 1.574943e-04	 -4.576562e-12
0	 0	 4.930181e-05
0	 0	 -4.930181e-05
1.673946e-04	 -7.132284e-04	 1.950020e-05
1.673945e-04	 -7.132285e-04	 -1.950021e-05
6.933706e-05	 -2.954289e-04	 -4.707766e-05
1.591480e-04	 6.134850e-05	 1.753575e-05
2.942643e-04	 1.113654e-04	 1.295230e-05
2.942643e-04	 1.113652e-04	 -1.295230e-05
1.591480e-04	 6.134835e-05	 -1.753575e-05
1.784411e-04	 -7.660455e-04	 -1.231279e-12
6.933715e-05	 -2.954289e-04	 4.707766e-05
1.261769e-04	 -5.416760e-04	 -3.486165e-05
1.261770e-04	 -5.416760e-04	 3.486165e-05
1.309407e-04	 -1.599126e-04	 -1.596411e-05
1.446972e-04	 -5.636722e-04	 6.838218e-05
0	 0	 -2.257664e-05
1.851780e-04	 -2.261507e-04	 -1.878795e-11
0	 0	 2.257667e-05
0	 0	 9.670700e-05
2.046327e-04	 -7.971529e-04	 1.048057e-11
0	 0	 -9.670702e-05
1.309406e-04	 -1.599128e-04	 1.596411e-05
1.446971e-04	 -5.636723e-04	 -6.838219e-05
1.688214e-04	 -1.671017e-04	 -1.236638e-05
0	 0	 -1.748869e-05
0	 0	 1.748871e-05
1.526566e-04	 -5.628834e-04	 5.265831e-05
1.526565e-04	 -5.628836e-04	 -5.265831e-05
0	 0	 7.447009e-05
0	 0	 -7.447011e-05
1.688213e-04	 -1.671019e-04	 1.236638e-05
2.158890e-04	 -7.960375e-04	 6.238044e-12
2.387494e-04	 -2.363177e-04	 -1.215128e-11
2.267885e-04	 -7.926619e-04	 1.994357e-12
0	 0	 -1.241288e-05
2.928196e-04	 -2.461082e-04	 -5.510681e-12
0	 0	 1.241289e-05
0	 0	 5.224234e-05
0	 0	 -5.224235e-05
2.070547e-04	 -1.740249e-04	 8.777233e-06
2.070548e-04	 -1.740247e-04	 -8.777234e-06
1.603637e-04	 -5.604965e-04	 3.694092e-05
1.603637e-04	 -5.604967e-04	 -3.694092e-05
0	 0	 -6.889763e-05
6.149982e-05	 -2.283134e-04	 -6.304809e-05
1.144315e-04	 -4.179353e-04	 -4.871799e-05
1.484737e-04	 -5.511973e-04	 -2.611539e-05
1.618305e-04	 -5.910499e-04	 -1.349541e-11
1.484737e-04	 -5.511975e-04	 2.611537e-05
1.144315e-04	 -4.179355e-04	 4.871799e-05
6.149980e-05	 -2.283135e-04	 6.304811e-05
0	 0	 6.889765e-05
0	 0	 -6.081530e-05
1.843004e-04	 -5.923219e-04	 -1.107944e-11
0	 0	 6.081532e-05
1.303201e-04	 -4.188349e-04	 4.300291e-05
1.303201e-04	 -4.188348e-04	 -4.300292e-05
1.461460e-04	 -4.194129e-04	 -3.731212e-05
1.900941e-04	 -5.528149e-04	 -2.030765e-05
0	 0	 -5.276730e-05
7.873956e-05	 -2.289834e-04	 -4.902698e-05
1.900941e-04	 -5.528150e-04	 2.030763e-05
7.873953e-05	 -2.289835e-04	 4.902699e-05
0	 0	 5.276731e-05
2.066816e-04	 -5.931395e-04	 -8.676849e-12
1.461460e-04	 -4.194131e-04	 3.731212e-05
2.288424e-04	 -5.937245e-04	 -6.269782e-12
1.618160e-04	 -4.198267e-04	 3.161058e-05
0	 0	 -4.470411e-05
1.618161e-04	 -4.198265e-04	 -3.161058e-05
0	 0	 4.470412e-05
0	 0	 -3.660208e-05
9.584764e-05	 -2.290769e-04	 -3.497055e-05
2.313966e-04	 -5.530407e-04	 -1.448528e-05
2.511556e-04	 -5.937859e-04	 -3.844149e-12
2.313966e-04	 -5.530408e-04	 1.448527e-05
1.775938e-04	 -4.198701e-04	 2.588158e-05
9.584759e-05	 -2.290770e-04	 3.497056e-05
0	 0	 3.660209e-05
1.775938e-04	 -4.198699e-04	 -2.588158e-05
1.775991e-04	 -4.198453e-04	 2.587850e-05
0	 0	 3.659773e-05
9.585049e-05	 -2.290635e-04	 3.496645e-05
2.314035e-04	 -5.530084e-04	 1.448358e-05
2.511631e-04	 -5.937511e-04	 3.405661e-12
2.314035e-04	 -5.530086e-04	 -1.448358e-05
1.775991e-04	 -4.198456e-04	 -2.587851e-05
9.585045e-05	 -2.290637e-04	 -3.496646e-05
0	 0	 -3.659774e-05
0	 0	 4.469928e-05
1.618212e-04	 -4.198019e-04	 3.160717e-05
0	 0	 -4.469930e-05
2.288496e-04	 -5.936898e-04	 7.100741e-12
1.618211e-04	 -4.198022e-04	 -3.160717e-05
2.066886e-04	 -5.931049e-04	 1.076910e-11
1.461509e-04	 -4.193886e-04	 -3.730837e-05
0	 0	 5.276199e-05
7.874220e-05	 -2.289700e-04	 4.902206e-05
1.901004e-04	 -5.527828e-04	 -2.030560e-05
7.874217e-05	 -2.289702e-04	 -4.902208e-05
0	 0	 -5.276201e-05
1.461509e-04	 -4.193883e-04	 3.730837e-05
1.901005e-04	 -5.527826e-04	 2.030561e-05
1.303248e-04	 -4.188102e-04	 4.299883e-05
1.303248e-04	 -4.188105e-04	 -4.299883e-05
0	 0	 6.080951e-05
1.843071e-04	 -5.922873e-04	 1.443035e-11
0	 0	 -6.080954e-05
0	 0	 6.889136e-05
6.150225e-05	 -2.283000e-04	 6.304235e-05
1.144360e-04	 -4.179108e-04	 4.871356e-05
1.484795e-04	 -5.511652e-04	 2.611301e-05
1.618369e-04	 -5.910153e-04	 1.810852e-11
1.484795e-04	 -5.511654e-04	 -2.611299e-05
1.144360e-04	 -4.179111e-04	 -4.871356e-05
6.150222e-05	 -2.283002e-04	 -6.304238e-05
0	 0	 -6.889140e-05
1.603577e-04	 -5.605174e-04	 -3.694339e-05
1.603577e-04	 -5.605175e-04	 3.694339e-05
2.070596e-04	 -1.739987e-04	 8.773900e-06
2.070596e-04	 -1.739990e-04	 -8.773902e-06
0	 0	 -5.224584e-05
0	 0	 5.224584e-05
0	 0	 1.240816e-05
2.928265e-04	 -2.460716e-04	 4.846399e-12
0	 0	 -1.240818e-05
2.267800e-04	 -7.926914e-04	 -2.179003e-12
2.387563e-04	 -2.362811e-04	 1.326298e-11
2.158814e-04	 -7.960668e-04	 -3.596007e-12
1.688262e-04	 -1.670761e-04	 -1.236233e-05
0	 0	 -7.447434e-05
0	 0	 7.447434e-05
1.526512e-04	 -5.629042e-04	 -5.266131e-05
1.526512e-04	 -5.629042e-04	 5.266131e-05
0	 0	 1.748295e-05
0	 0	 -1.748298e-05
1.688262e-04	 -1.670758e-04	 1.236232e-05
1.446925e-04	 -5.636928e-04	 6.838571e-05
1.309455e-04	 -1.598870e-04	 -1.595933e-05
0	 0	 -9.671200e-05
2.046261e-04	 -7.971820e-04	 -5.015340e-12
0	 0	 9.671200e-05
0	 0	 2.256988e-05
1.851849e-04	 -2.261142e-04	 2.166768e-11
0	 0	 -2.256993e-05
1.446925e-04	 -5.636928e-04	 -6.838571e-05
1.309455e-04	 -1.598867e-04	 1.595933e-05
1.261689e-04	 -5.416911e-04	 -3.486307e-05
1.261688e-04	 -5.416911e-04	 3.486307e-05
6.933282e-05	 -2.954371e-04	 -4.707955e-05
1.784297e-04	 -7.660669e-04	 4.477338e-13
1.591502e-04	 6.136189e-05	 -1.753984e-05
2.942683e-04	 1.113900e-04	 -1.295537e-05
2.942682e-04	 1.113897e-04	 1.295536e-05
1.591502e-04	 6.136172e-05	 1.753983e-05
1.673842e-04	 -7.132482e-04	 -1.950099e-05
1.673841e-04	 -7.132482e-04	 1.950099e-05
6.933274e-05	 -2.954371e-04	 4.707954e-05
0	 0	 -4.930382e-05
0	 0	 4.930382e-05
4.161581e-04	 1.575290e-04	 3.599909e-12
0	 0	 -1.832166e-05
3.842225e-04	 1.481404e-04	 7.265240e-06
0	 0	 1.832165e-05
3.842226e-04	 1.481406e-04	 -7.265233e-06
1.329817e-04	 -5.387970e-04	 -4.238531e-05
2.751989e-04	 1.188593e-04	 -1.584308e-05
0	 0	 -2.240551e-05
0	 0	 2.240549e-05
1.880645e-04	 -7.619740e-04	 1.724563e-12
0	 0	 -5.994189e-05
0	 0	 5.994188e-05
1.329816e-04	 -5.387970e-04	 4.238531e-05
2.751989e-04	 1.188591e-04	 1.584308e-05
3.891901e-04	 1.680922e-04	 7.269911e-12
1.385613e-04	 6.940541e-05	 2.460595e-05
1.395798e-04	 -5.355339e-04	 -4.987437e-05
1.852992e-04	 -7.055883e-04	 2.712802e-05
2.561713e-04	 1.260986e-04	 -1.871634e-05
3.345165e-04	 1.675596e-04	 1.019213e-05
3.345166e-04	 1.675598e-04	 -1.019211e-05
0	 0	 -7.053301e-05
7.675348e-05	 -2.922643e-04	 -6.549283e-05
1.973956e-04	 -7.573593e-04	 2.991138e-12
0	 0	 7.053300e-05
3.622809e-04	 1.783302e-04	 1.091600e-11
0	 0	 -2.646891e-05
1.385613e-04	 6.940559e-05	 -2.460596e-05
0	 0	 2.646888e-05
1.852992e-04	 -7.055883e-04	 -2.712802e-05
7.675341e-05	 -2.922642e-04	 6.549283e-05
1.395797e-04	 -5.355339e-04	 4.987437e-05
2.561712e-04	 1.260984e-04	 1.871633e-05
0	 0	 -8.110705e-05
1.462125e-04	 -5.321032e-04	 -5.735134e-05
1.462124e-04	 -5.321031e-04	 5.735134e-05
0	 0	 8.110704e-05
0	 0	 -3.053231e-05
2.369357e-04	 1.333497e-04	 2.158959e-05
0	 0	 3.053228e-05
2.369357e-04	 1.333500e-04	 -2.158959e-05
2.067756e-04	 -7.525075e-04	 4.257832e-12
3.350777e-04	 1.885852e-04	 1.455575e-11
8.401842e-05	 -2.884900e-04	 -8.385918e-05
1.177111e-04	 7.724430e-05	 -3.166851e-05
2.175688e-04	 1.404683e-04	 2.447597e-05
1.177111e-04	 7.724413e-05	 3.166848e-05
0	 0	 -9.171801e-05
1.527386e-04	 -5.283239e-04	 -6.485442e-05
2.160049e-04	 -7.471629e-04	 5.531756e-12
2.028383e-04	 -6.964763e-04	 3.473561e-05
1.527385e-04	 -5.283239e-04	 6.485442e-05
8.401837e-05	 -2.884899e-04	 8.385917e-05
0	 0	 9.171800e-05
0	 0	 -3.461427e-05
2.175689e-04	 1.404685e-04	 -2.447597e-05
3.076888e-04	 1.986523e-04	 1.820804e-11
2.841797e-04	 1.864839e-04	 1.311753e-05
0	 0	 3.461423e-05
2.028384e-04	 -6.964763e-04	 -3.473561e-05
2.841797e-04	 1.864841e-04	 -1.311751e-05
0	 0	 -3.211614e-05
4.037581e-05	 -5.556346e-04	 3.097585e-12
2.854994e-05	 -3.928929e-04	 2.270954e-05
0	 0	 3.211613e-05
0	 0	 -4.476295e-05
5.397703e-04	 4.773390e-04	 2.020590e-12
3.816753e-04	 3.375296e-04	 3.165218e-05
0	 0	 4.476294e-05
3.816753e-04	 3.375297e-04	 -3.165218e-05