# vtk DataFile Version 3.0
Unstructured Grid Example
ASCII
DATASET UNSTRUCTURED_GRID
POINTS 832 float
-1	 0	 0
-1	 0	 3.750000e-01
-1	 0	 7.500000e-01
-1	 0	 1.125000e+00
-1	 0	 1.500000e+00
-1	 0	 1.875000e+00
-1	 0	 2.250000e+00
-1	 0	 2.625000e+00
-1	 0	 3
-9.875000e-01	 0	 0
-9.875000e-01	 0	 1.500000e+00
-9.875000e-01	 0	 3
-9.875000e-01	 0	 2.250000e+00
-9.875000e-01	 0	 7.500000e-01
-9.833054e-01	 -1.819631e-01	 7.500000e-01
-9.833054e-01	 -1.819631e-01	 0
-9.833054e-01	 -1.819631e-01	 1.500000e+00
-9.833054e-01	 -1.819631e-01	 3.000000e+00
-9.833054e-01	 1.819631e-01	 2.250000e+00
-9.833054e-01	 1.819631e-01	 0
-9.833054e-01	 1.819631e-01	 1.500000e+00
-9.833054e-01	 1.819631e-01	 3.000000e+00
-9.833054e-01	 1.819631e-01	 7.500000e-01
-9.833054e-01	 -1.819631e-01	 2.250000e+00
-9.750000e-01	 0	 7.500000e-01
-9.750000e-01	 0	 1.125000e+00
-9.750000e-01	 0	 0
-9.750000e-01	 0	 3.750000e-01
-9.750000e-01	 0	 1.875000e+00
-9.750000e-01	 0	 2.625000e+00
-9.750000e-01	 0	 3
-9.750000e-01	 0	 1.500000e+00
-9.750000e-01	 0	 2.250000e+00
-9.625000e-01	 0	 1.500000e+00
-9.625000e-01	 0	 2.250000e+00
-9.625000e-01	 0	 0
-9.625000e-01	 0	 7.500000e-01
-9.625000e-01	 0	 3
-9.587227e-01	 -1.774140e-01	 0
-9.587227e-01	 -1.774140e-01	 3.000000e+00
-9.587227e-01	 -1.774140e-01	 1.500000e+00
-9.587227e-01	 1.774140e-01	 0
-9.587227e-01	 1.774140e-01	 3.000000e+00
-9.587227e-01	 1.774140e-01	 1.500000e+00
-9.587227e-01	 1.774140e-01	 7.500000e-01
-9.587227e-01	 -1.774140e-01	 7.500000e-01
-9.587227e-01	 -1.774140e-01	 2.250000e+00
-9.587227e-01	 1.774140e-01	 2.250000e+00
-9.500000e-01	 0	 0
-9.500000e-01	 0	 3.750000e-01
-9.500000e-01	 0	 1.125000e+00
-9.500000e-01	 0	 1.500000e+00
-9.500000e-01	 0	 1.875000e+00
-9.500000e-01	 0	 2.250000e+00
-9.500000e-01	 0	 2.625000e+00
-9.500000e-01	 0	 3
-9.500000e-01	 0	 7.500000e-01
-9.341401e-01	 -1.728649e-01	 1.500000e+00
-9.341401e-01	 -1.728649e-01	 0
-9.341401e-01	 -1.728649e-01	 3.000000e+00
-9.341401e-01	 1.728649e-01	 2.250000e+00
-9.341401e-01	 1.728649e-01	 0
-9.341401e-01	 1.728649e-01	 1.500000e+00
-9.341401e-01	 1.728649e-01	 3.000000e+00
-9.341401e-01	 -1.728649e-01	 7.500000e-01
-9.341401e-01	 -1.728649e-01	 2.250000e+00
-9.341401e-01	 1.728649e-01	 7.500000e-01
-9.297883e-01	 -3.680947e-01	 1.125000e+00
-9.297883e-01	 -3.680947e-01	 0
-9.297883e-01	 -3.680947e-01	 7.500000e-01
-9.297883e-01	 -3.680947e-01	 1.500000e+00
-9.297883e-01	 -3.680947e-01	 1.875000e+00
-9.297883e-01	 -3.680947e-01	 2.250000e+00
-9.297883e-01	 -3.680947e-01	 2.625000e+00
-9.297883e-01	 -3.680947e-01	 3.000000e+00
-9.297883e-01	 -3.680947e-01	 3.750000e-01
-9.297883e-01	 3.680947e-01	 3.750000e-01
-9.297883e-01	 3.680947e-01	 2.250000e+00
-9.297883e-01	 3.680947e-01	 2.625000e+00
-9.297883e-01	 3.680947e-01	 0
-9.297883e-01	 3.680947e-01	 7.500000e-01
-9.297883e-01	 3.680947e-01	 1.500000e+00
-9.297883e-01	 3.680947e-01	 1.875000e+00
-9.297883e-01	 3.680947e-01	 3.000000e+00
-9.297883e-01	 3.680947e-01	 1.125000e+00
-9.181659e-01	 3.634935e-01	 7.500000e-01
-9.181659e-01	 -3.634935e-01	 0
-9.181659e-01	 -3.634935e-01	 7.500000e-01
-9.181659e-01	 -3.634935e-01	 2.250000e+00
-9.181659e-01	 -3.634935e-01	 3
-9.181659e-01	 3.634935e-01	 0
-9.181659e-01	 3.634935e-01	 2.250000e+00
-9.181659e-01	 3.634935e-01	 3
-9.181659e-01	 -3.634935e-01	 1.500000e+00
-9.181659e-01	 3.634935e-01	 1.500000e+00
-9.065436e-01	 -3.588923e-01	 1.125000e+00
-9.065436e-01	 -3.588923e-01	 2.625000e+00
-9.065436e-01	 -3.588923e-01	 0
-9.065436e-01	 -3.588923e-01	 3.750000e-01
-9.065436e-01	 -3.588923e-01	 1.500000e+00
-9.065436e-01	 -3.588923e-01	 3
-9.065436e-01	 3.588923e-01	 2.625000e+00
-9.065436e-01	 3.588923e-01	 1.125000e+00
-9.065436e-01	 3.588923e-01	 0
-9.065436e-01	 3.588923e-01	 3.750000e-01
-9.065436e-01	 3.588923e-01	 3
-9.065436e-01	 -3.588923e-01	 7.500000e-01
-9.065436e-01	 -3.588923e-01	 1.875000e+00
-9.065436e-01	 3.588923e-01	 1.875000e+00
-9.065436e-01	 3.588923e-01	 1.500000e+00
-9.065436e-01	 -3.588923e-01	 2.250000e+00
-9.065436e-01	 3.588923e-01	 7.500000e-01
-9.065436e-01	 3.588923e-01	 2.250000e+00
-8.949212e-01	 3.542912e-01	 1.500000e+00
-8.949212e-01	 -3.542912e-01	 1.500000e+00
-8.949212e-01	 -3.542912e-01	 0
-8.949212e-01	 -3.542912e-01	 3.000000e+00
-8.949212e-01	 3.542912e-01	 0
-8.949212e-01	 3.542912e-01	 3.000000e+00
-8.949212e-01	 -3.542912e-01	 2.250000e+00
-8.949212e-01	 -3.542912e-01	 7.500000e-01
-8.949212e-01	 3.542912e-01	 2.250000e+00
-8.949212e-01	 3.542912e-01	 7.500000e-01
-8.832989e-01	 -3.496900e-01	 1.125000e+00
-8.832989e-01	 -3.496900e-01	 1.875000e+00
-8.832989e-01	 -3.496900e-01	 2.625000e+00
-8.832989e-01	 -3.496900e-01	 2.250000e+00
-8.832989e-01	 3.496900e-01	 1.125000e+00
-8.832989e-01	 -3.496900e-01	 0
-8.832989e-01	 -3.496900e-01	 3.000000e+00
-8.832989e-01	 -3.496900e-01	 3.750000e-01
-8.832989e-01	 -3.496900e-01	 7.500000e-01
-8.832989e-01	 3.496900e-01	 3.750000e-01
-8.832989e-01	 3.496900e-01	 7.500000e-01
-8.832989e-01	 3.496900e-01	 2.250000e+00
-8.832989e-01	 3.496900e-01	 2.625000e+00
-8.832989e-01	 3.496900e-01	 0
-8.832989e-01	 3.496900e-01	 1.875000e+00
-8.832989e-01	 3.496900e-01	 3.000000e+00
-8.832989e-01	 -3.496900e-01	 1.500000e+00
-8.832989e-01	 3.496900e-01	 1.500000e+00
-8.369955e-01	 -5.472098e-01	 0
-8.369955e-01	 -5.472098e-01	 7.500000e-01
-8.369955e-01	 -5.472098e-01	 1.500000e+00
-8.369955e-01	 -5.472098e-01	 2.250000e+00
-8.369955e-01	 -5.472098e-01	 3
-8.369955e-01	 5.472098e-01	 0
-8.369955e-01	 5.472098e-01	 7.500000e-01
-8.369955e-01	 5.472098e-01	 1.500000e+00
-8.369955e-01	 5.472098e-01	 2.250000e+00
-8.369955e-01	 5.472098e-01	 3
-8.160706e-01	 -5.335295e-01	 7.500000e-01
-8.160706e-01	 5.335295e-01	 7.500000e-01
-8.160706e-01	 -5.335295e-01	 1.500000e+00
-8.160706e-01	 -5.335295e-01	 2.250000e+00
-8.160706e-01	 5.335295e-01	 1.500000e+00
-8.160706e-01	 5.335295e-01	 2.250000e+00
-8.160706e-01	 -5.335295e-01	 0
-8.160706e-01	 -5.335295e-01	 3.000000e+00
-8.160706e-01	 5.335295e-01	 0
-8.160706e-01	 5.335295e-01	 3.000000e+00
-7.951457e-01	 -5.198493e-01	 7.500000e-01
-7.951457e-01	 5.198493e-01	 7.500000e-01
-7.951457e-01	 -5.198493e-01	 0
-7.951457e-01	 -5.198493e-01	 1.500000e+00
-7.951457e-01	 -5.198493e-01	 2.250000e+00
-7.951457e-01	 -5.198493e-01	 3
-7.951457e-01	 5.198493e-01	 0
-7.951457e-01	 5.198493e-01	 1.500000e+00
-7.951457e-01	 5.198493e-01	 2.250000e+00
-7.951457e-01	 5.198493e-01	 3
-7.071068e-01	 -7.071068e-01	 0
-7.071068e-01	 -7.071068e-01	 3.750000e-01
-7.071068e-01	 -7.071068e-01	 7.500000e-01
-7.071068e-01	 -7.071068e-01	 1.125000e+00
-7.071068e-01	 -7.071068e-01	 1.500000e+00
-7.071068e-01	 -7.071068e-01	 1.875000e+00
-7.071068e-01	 -7.071068e-01	 2.250000e+00
-7.071068e-01	 -7.071068e-01	 2.625000e+00
-7.071068e-01	 -7.071068e-01	 3.000000e+00
-7.071068e-01	 7.071068e-01	 0
-7.071068e-01	 7.071068e-01	 3.750000e-01
-7.071068e-01	 7.071068e-01	 7.500000e-01
-7.071068e-01	 7.071068e-01	 1.125000e+00
-7.071068e-01	 7.071068e-01	 1.500000e+00
-7.071068e-01	 7.071068e-01	 1.875000e+00
-7.071068e-01	 7.071068e-01	 2.250000e+00
-7.071068e-01	 7.071068e-01	 2.625000e+00
-7.071068e-01	 7.071068e-01	 3.000000e+00
-6.982679e-01	 -6.982679e-01	 7.500000e-01
-6.982679e-01	 6.982679e-01	 7.500000e-01
-6.982679e-01	 -6.982679e-01	 0
-6.982679e-01	 -6.982679e-01	 2.250000e+00
-6.982679e-01	 -6.982679e-01	 3.000000e+00
-6.982679e-01	 6.982679e-01	 0
-6.982679e-01	 6.982679e-01	 2.250000e+00
-6.982679e-01	 6.982679e-01	 3.000000e+00
-6.982679e-01	 -6.982679e-01	 1.500000e+00
-6.982679e-01	 6.982679e-01	 1.500000e+00
-6.894291e-01	 -6.894291e-01	 3.750000e-01
-6.894291e-01	 -6.894291e-01	 2.625000e+00
-6.894291e-01	 -6.894291e-01	 0
-6.894291e-01	 -6.894291e-01	 1.500000e+00
-6.894291e-01	 -6.894291e-01	 2.250000e+00
-6.894291e-01	 -6.894291e-01	 3.000000e+00
-6.894291e-01	 6.894291e-01	 3.750000e-01
-6.894291e-01	 6.894291e-01	 2.625000e+00
-6.894291e-01	 -6.894291e-01	 1.875000e+00
-6.894291e-01	 6.894291e-01	 1.875000e+00
-6.894291e-01	 -6.894291e-01	 7.500000e-01
-6.894291e-01	 -6.894291e-01	 1.125000e+00
-6.894291e-01	 6.894291e-01	 0
-6.894291e-01	 6.894291e-01	 1.500000e+00
-6.894291e-01	 6.894291e-01	 2.250000e+00
-6.894291e-01	 6.894291e-01	 3.000000e+00
-6.894291e-01	 6.894291e-01	 7.500000e-01
-6.894291e-01	 6.894291e-01	 1.125000e+00
-6.805903e-01	 6.805903e-01	 7.500000e-01
-6.805903e-01	 -6.805903e-01	 7.500000e-01
-6.805903e-01	 -6.805903e-01	 0
-6.805903e-01	 -6.805903e-01	 1.500000e+00
-6.805903e-01	 -6.805903e-01	 3.000000e+00
-6.805903e-01	 6.805903e-01	 0
-6.805903e-01	 6.805903e-01	 1.500000e+00
-6.805903e-01	 6.805903e-01	 3.000000e+00
-6.805903e-01	 6.805903e-01	 2.250000e+00
-6.805903e-01	 -6.805903e-01	 2.250000e+00
-6.717514e-01	 -6.717514e-01	 2.625000e+00
-6.717514e-01	 6.717514e-01	 2.625000e+00
-6.717514e-01	 -6.717514e-01	 0
-6.717514e-01	 -6.717514e-01	 3.750000e-01
-6.717514e-01	 -6.717514e-01	 7.500000e-01
-6.717514e-01	 -6.717514e-01	 1.125000e+00
-6.717514e-01	 -6.717514e-01	 1.875000e+00
-6.717514e-01	 -6.717514e-01	 3.000000e+00
-6.717514e-01	 -6.717514e-01	 2.250000e+00
-6.717514e-01	 6.717514e-01	 1.500000e+00
-6.717514e-01	 6.717514e-01	 0
-6.717514e-01	 6.717514e-01	 3.750000e-01
-6.717514e-01	 6.717514e-01	 7.500000e-01
-6.717514e-01	 6.717514e-01	 1.125000e+00
-6.717514e-01	 6.717514e-01	 1.875000e+00
-6.717514e-01	 6.717514e-01	 3.000000e+00
-6.717514e-01	 -6.717514e-01	 1.500000e+00
-6.717514e-01	 6.717514e-01	 2.250000e+00
-5.472098e-01	 -8.369955e-01	 0
-5.472098e-01	 -8.369955e-01	 7.500000e-01
-5.472098e-01	 -8.369955e-01	 1.500000e+00
-5.472098e-01	 -8.369955e-01	 2.250000e+00
-5.472098e-01	 -8.369955e-01	 3
-5.472098e-01	 8.369955e-01	 0
-5.472098e-01	 8.369955e-01	 7.500000e-01
-5.472098e-01	 8.369955e-01	 1.500000e+00
-5.472098e-01	 8.369955e-01	 2.250000e+00
-5.472098e-01	 8.369955e-01	 3
-5.335295e-01	 -8.160706e-01	 1.500000e+00
-5.335295e-01	 -8.160706e-01	 2.250000e+00
-5.335295e-01	 8.160706e-01	 0
-5.335295e-01	 8.160706e-01	 3.000000e+00
[...]
POINT_DATA 832
VECTORS displacement float
0	 0	 -2.147084e-10
-2.037270e-10	 -2.370557e-05	 -1.970500e-10
-3.781008e-10	 -4.396368e-05	 -1.514920e-10
-4.888321e-10	 -5.723030e-05	 -8.119217e-11
-5.307175e-10	 -6.217403e-05	 4.674119e-13
-4.845383e-10	 -5.723029e-05	 8.179549e-11
-3.724144e-10	 -4.396368e-05	 1.514827e-10
-1.994345e-10	 -2.370556e-05	 1.964280e-10
0	 0	 2.137548e-10
0	 0	 -2.071982e-10
-5.305431e-10	 -6.482743e-05	 3.763687e-13
0	 0	 2.064266e-10
-3.722803e-10	 -4.583991e-05	 1.462360e-10
-3.779880e-10	 -4.583992e-05	 -1.462452e-10
-2.559801e-05	 -4.646612e-05	 -6.061142e-06
0	 0	 -8.571750e-06
-3.620105e-05	 -6.571302e-05	 9.004922e-13
0	 0	 8.571748e-06
2.559708e-05	 -4.646615e-05	 -6.060836e-06
0	 0	 8.571316e-06
3.619974e-05	 -6.571306e-05	 -5.795202e-14
0	 0	 -8.571316e-06
2.559708e-05	 -4.646615e-05	 6.060836e-06
-2.559800e-05	 -4.646612e-05	 6.061142e-06
-3.783294e-10	 -4.771459e-05	 -1.409515e-10
-4.895453e-10	 -6.216427e-05	 -7.614560e-11
0	 0	 -1.996218e-10
-2.040279e-10	 -2.574928e-05	 -1.845319e-10
-4.852324e-10	 -6.216427e-05	 7.655141e-11
-1.997164e-10	 -2.574928e-05	 1.841074e-10
0	 0	 1.990315e-10
-5.310149e-10	 -6.747862e-05	 2.856782e-13
-3.726061e-10	 -4.771459e-05	 1.409423e-10
-5.316776e-10	 -7.011271e-05	 1.948092e-13
-3.730672e-10	 -4.957717e-05	 1.356534e-10
0	 0	 -1.920520e-10
-3.788054e-10	 -4.957717e-05	 -1.356625e-10
0	 0	 1.916434e-10
0	 0	 -7.265839e-06
0	 0	 7.265838e-06
-3.544179e-05	 -7.025926e-05	 5.627210e-13
0	 0	 7.265441e-06
0	 0	 -7.265441e-06
3.544049e-05	 -7.025923e-05	 -3.763132e-14
2.506021e-05	 -4.968078e-05	 5.137443e-06
-2.506114e-05	 -4.968080e-05	 -5.137724e-06
-2.506113e-05	 -4.968080e-05	 5.137724e-06
2.506021e-05	 -4.968078e-05	 -5.137443e-06
0	 0	 -1.845134e-10
-2.050130e-10	 -2.778468e-05	 -1.719897e-10
-4.919195e-10	 -6.707814e-05	 -7.108966e-11
-5.331146e-10	 -7.275856e-05	 1.033219e-13
-4.876009e-10	 -6.707814e-05	 7.129714e-11
-3.740789e-10	 -5.144807e-05	 1.303869e-10
-2.006958e-10	 -2.778467e-05	 1.717635e-10
0	 0	 1.842877e-10
-3.798259e-10	 -5.144807e-05	 -1.303960e-10
-3.462056e-05	 -7.482240e-05	 2.244117e-13
0	 0	 -5.957934e-06
0	 0	 5.957934e-06
2.447952e-05	 -5.290736e-05	 -4.212640e-06
0	 0	 5.957573e-06
3.461926e-05	 -7.482231e-05	 -1.720374e-14
0	 0	 -5.957573e-06
-2.448044e-05	 -5.290743e-05	 -4.212896e-06
-2.448043e-05	 -5.290743e-05	 4.212896e-06
2.447952e-05	 -5.290737e-05	 4.212640e-06
-6.257440e-05	 -6.964831e-05	 -6.196752e-06
0	 0	 -1.632744e-05
-4.751387e-05	 -5.326857e-05	 -1.154524e-05
-6.719475e-05	 -7.533314e-05	 1.060147e-12
-6.257439e-05	 -6.964831e-05	 6.196753e-06
-4.751385e-05	 -5.326857e-05	 1.154524e-05
-2.591916e-05	 -2.884927e-05	 1.496028e-05
0	 0	 1.632744e-05
-2.591917e-05	 -2.884928e-05	 -1.496029e-05
2.591839e-05	 -2.884923e-05	 1.495988e-05
4.751242e-05	 -5.326848e-05	 -1.154493e-05
2.591838e-05	 -2.884923e-05	 -1.495988e-05
0	 0	 1.632699e-05
4.751243e-05	 -5.326849e-05	 1.154493e-05
6.719272e-05	 -7.533302e-05	 -5.806911e-13
6.257252e-05	 -6.964820e-05	 -6.196584e-06
0	 0	 -1.632699e-05
6.257252e-05	 -6.964820e-05	 6.196583e-06
4.711538e-05	 -5.455120e-05	 1.066838e-05
0	 0	 -1.508779e-05
-4.711680e-05	 -5.455133e-05	 -1.066868e-05
-4.711679e-05	 -5.455132e-05	 1.066868e-05
0	 0	 1.508779e-05
0	 0	 1.508737e-05
4.711537e-05	 -5.455120e-05	 -1.066838e-05
0	 0	 -1.508737e-05
-6.663321e-05	 -7.714722e-05	 8.559700e-13
6.663120e-05	 -7.714705e-05	 -4.709552e-13
-6.149154e-05	 -7.298540e-05	 -5.314386e-06
-2.547062e-05	 -3.023154e-05	 1.283006e-05
0	 0	 -1.384953e-05
-2.547063e-05	 -3.023154e-05	 -1.283007e-05
-6.604601e-05	 -7.895036e-05	 6.526711e-13
0	 0	 1.384953e-05
2.546986e-05	 -3.023145e-05	 -1.282970e-05
6.148970e-05	 -7.298519e-05	 5.314236e-06
0	 0	 1.384913e-05
2.546987e-05	 -3.023146e-05	 1.282970e-05
0	 0	 -1.384913e-05
-4.670158e-05	 -5.582634e-05	 -9.793094e-06
-6.149153e-05	 -7.298540e-05	 5.314387e-06
6.148969e-05	 -7.298518e-05	 -5.314237e-06
6.604402e-05	 -7.895013e-05	 -3.617554e-13
-4.670157e-05	 -5.582634e-05	 9.793094e-06
4.670018e-05	 -5.582618e-05	 9.792817e-06
4.670017e-05	 -5.582617e-05	 -9.792817e-06
6.544603e-05	 -8.073698e-05	 -2.524969e-13
-6.544800e-05	 -8.073727e-05	 4.491020e-13
0	 0	 -1.261041e-05
0	 0	 1.261041e-05
0	 0	 1.261004e-05
0	 0	 -1.261004e-05
-4.627872e-05	 -5.708987e-05	 8.916904e-06
-4.627873e-05	 -5.708987e-05	 -8.916904e-06
4.627733e-05	 -5.708966e-05	 -8.916646e-06
4.627734e-05	 -5.708967e-05	 8.916646e-06
-6.032781e-05	 -7.627687e-05	 -4.430363e-06
-6.032780e-05	 -7.627687e-05	 4.430363e-06
-2.498859e-05	 -3.159491e-05	 1.069584e-05
-4.583353e-05	 -5.834991e-05	 8.038355e-06
6.032600e-05	 -7.627656e-05	 4.430231e-06
0	 0	 -1.136795e-05
0	 0	 1.136795e-05
-2.498860e-05	 -3.159492e-05	 -1.069584e-05
-4.583354e-05	 -5.834991e-05	 -8.038355e-06
2.498785e-05	 -3.159479e-05	 1.069553e-05
4.583216e-05	 -5.834967e-05	 8.038115e-06
4.583215e-05	 -5.834967e-05	 -8.038116e-06
2.498784e-05	 -3.159478e-05	 -1.069553e-05
0	 0	 1.136761e-05
6.032599e-05	 -7.627655e-05	 -4.430232e-06
0	 0	 -1.136761e-05
-6.481841e-05	 -8.251924e-05	 2.440840e-13
6.481646e-05	 -8.251890e-05	 -1.424436e-13
0	 0	 -2.196306e-05
-6.177902e-05	 -6.141419e-05	 -1.553023e-05
-8.736872e-05	 -8.685277e-05	 9.472890e-13
-6.177901e-05	 -6.141418e-05	 1.553023e-05
0	 0	 2.196306e-05
0	 0	 2.196264e-05
6.177711e-05	 -6.141384e-05	 1.552993e-05
8.736602e-05	 -8.685228e-05	 -9.537068e-13
6.177710e-05	 -6.141383e-05	 -1.552993e-05
0	 0	 -2.196264e-05
-6.116201e-05	 -6.261925e-05	 -1.319464e-05
6.116012e-05	 -6.261886e-05	 1.319440e-05
-8.649613e-05	 -8.855699e-05	 5.972295e-13
-6.116200e-05	 -6.261925e-05	 1.319464e-05
8.649347e-05	 -8.855644e-05	 -6.080250e-13
6.116012e-05	 -6.261885e-05	 -1.319440e-05
0	 0	 -1.866005e-05
0	 0	 1.866004e-05
0	 0	 1.865969e-05
0	 0	 -1.865969e-05
-6.046042e-05	 -6.377830e-05	 -1.085685e-05
6.045856e-05	 -6.377787e-05	 1.085665e-05
0	 0	 -1.535390e-05
-8.550394e-05	 -9.019613e-05	 2.468626e-13
-6.046041e-05	 -6.377829e-05	 1.085685e-05
0	 0	 1.535390e-05
0	 0	 1.535362e-05
8.550132e-05	 -9.019552e-05	 -2.619773e-13
6.045856e-05	 -6.377786e-05	 -1.085665e-05
0	 0	 -1.535362e-05
0	 0	 -2.378057e-05
-3.559204e-05	 -3.559144e-05	 -2.181008e-05
-6.538500e-05	 -6.538388e-05	 -1.681540e-05
-8.592678e-05	 -8.592533e-05	 -9.034029e-06
-9.246834e-05	 -9.246677e-05	 4.264439e-13
-8.592678e-05	 -8.592533e-05	 9.034029e-06
-6.538499e-05	 -6.538388e-05	 1.681540e-05
-3.559204e-05	 -3.559144e-05	 2.181007e-05
0	 0	 2.378057e-05
0	 0	 2.378027e-05
3.559093e-05	 -3.559116e-05	 2.180980e-05
6.538295e-05	 -6.538338e-05	 1.681519e-05
8.592410e-05	 -8.592465e-05	 9.033914e-06
9.246545e-05	 -9.246605e-05	 -9.359796e-13
8.592409e-05	 -8.592465e-05	 -9.033915e-06
6.538294e-05	 -6.538337e-05	 -1.681519e-05
3.559092e-05	 -3.559115e-05	 -2.180980e-05
0	 0	 -2.378027e-05
-6.548917e-05	 -6.548801e-05	 -1.554556e-05
6.548712e-05	 -6.548750e-05	 1.554537e-05
0	 0	 -2.198474e-05
-6.548916e-05	 -6.548801e-05	 1.554556e-05
0	 0	 2.198474e-05
0	 0	 2.198447e-05
6.548711e-05	 -6.548749e-05	 -1.554537e-05
0	 0	 -2.198447e-05
-9.261566e-05	 -9.261403e-05	 3.434020e-13
9.261277e-05	 -9.261331e-05	 -7.588414e-13
-3.568465e-05	 -3.568400e-05	 -1.871664e-05
-3.568465e-05	 -3.568400e-05	 1.871664e-05
0	 0	 -2.019066e-05
-9.273621e-05	 -9.273451e-05	 2.608506e-13
-6.557440e-05	 -6.557320e-05	 1.427696e-05
0	 0	 2.019066e-05
3.568354e-05	 -3.568372e-05	 1.871642e-05
3.568353e-05	 -3.568371e-05	 -1.871642e-05
-8.615036e-05	 -8.614880e-05	 7.752686e-06
8.614767e-05	 -8.614811e-05	 -7.752597e-06
-6.557441e-05	 -6.557320e-05	 -1.427696e-05
-8.615037e-05	 -8.614880e-05	 -7.752685e-06
0	 0	 2.019043e-05
9.273331e-05	 -9.273378e-05	 -5.825575e-13
6.557235e-05	 -6.557268e-05	 -1.427679e-05
0	 0	 -2.019043e-05
6.557236e-05	 -6.557269e-05	 1.427679e-05
8.614768e-05	 -8.614811e-05	 7.752596e-06
6.564669e-05	 -6.564697e-05	 1.300700e-05
-6.564873e-05	 -6.564748e-05	 -1.300714e-05
0	 0	 -1.839488e-05
-9.284133e-05	 -9.283956e-05	 1.782359e-13
0	 0	 1.839488e-05
0	 0	 1.839468e-05
9.283843e-05	 -9.283883e-05	 -4.061056e-13
0	 0	 -1.839468e-05
6.564668e-05	 -6.564696e-05	 -1.300700e-05
-6.564873e-05	 -6.564748e-05	 1.300714e-05
-3.574089e-05	 -3.574019e-05	 1.561627e-05
3.573977e-05	 -3.573990e-05	 -1.561612e-05
0	 0	 -1.659438e-05
-3.574089e-05	 -3.574019e-05	 -1.561627e-05
-6.570200e-05	 -6.570071e-05	 -1.173400e-05
-8.628614e-05	 -8.628445e-05	 -6.468471e-06
-8.628614e-05	 -8.628445e-05	 6.468472e-06
0	 0	 1.659438e-05
-6.570199e-05	 -6.570071e-05	 1.173400e-05
9.291376e-05	 -9.291410e-05	 -2.283182e-13
0	 0	 1.659421e-05
3.573978e-05	 -3.573991e-05	 1.561612e-05
6.569995e-05	 -6.570019e-05	 1.173388e-05
8.628345e-05	 -8.628377e-05	 6.468407e-06
8.628344e-05	 -8.628376e-05	 -6.468408e-06
0	 0	 -1.659421e-05
-9.291666e-05	 -9.291483e-05	 9.491568e-14
6.569994e-05	 -6.570019e-05	 -1.173388e-05
0	 0	 -2.196272e-05
-6.141468e-05	 -6.177713e-05	 -1.552999e-05
-8.685347e-05	 -8.736605e-05	 -2.441578e-13
-6.141467e-05	 -6.177713e-05	 1.552999e-05
0	 0	 2.196272e-05
0	 0	 2.196264e-05
6.141289e-05	 -6.177683e-05	 1.552993e-05
8.685094e-05	 -8.736563e-05	 -6.371854e-13
6.141288e-05	 -6.177683e-05	 -1.552993e-05
0	 0	 -2.196263e-05
-8.855781e-05	 -8.649338e-05	 -1.582560e-13
-6.261983e-05	 -6.116006e-05	 1.319444e-05
0	 0	 1.865972e-05
0	 0	 -1.865971e-05
8.855519e-05	 -8.649302e-05	 -4.031545e-13
6.261797e-05	 -6.115980e-05	 -1.319441e-05
-6.261983e-05	 -6.116005e-05	 -1.319444e-05
0	 0	 -1.865975e-05
0	 0	 1.865975e-05
6.261798e-05	 -6.115981e-05	 1.319441e-05
6.377705e-05	 -6.045821e-05	 1.085668e-05
-6.377897e-05	 -6.045840e-05	 -1.085668e-05
0	 0	 -1.535366e-05
-9.019709e-05	 -8.550110e-05	 -7.222325e-14
-6.377897e-05	 -6.045841e-05	 1.085668e-05
0	 0	 1.535366e-05
0	 0	 1.535367e-05
9.019436e-05	 -8.550082e-05	 -1.689017e-13
6.377704e-05	 -6.045820e-05	 -1.085668e-05
0	 0	 -1.535366e-05
-6.964846e-05	 -6.257096e-05	 -6.196518e-06
6.964683e-05	 -6.257173e-05	 6.196608e-06
0	 0	 -1.632682e-05
-5.326870e-05	 -4.751124e-05	 -1.154481e-05
-7.533332e-05	 -6.719104e-05	 -8.637967e-13
-6.964847e-05	 -6.257096e-05	 6.196517e-06
0	 0	 1.632682e-05
0	 0	 1.632706e-05
5.326745e-05	 -4.751184e-05	 1.154497e-05
7.533155e-05	 -6.719189e-05	 -3.749203e-14
6.964683e-05	 -6.257174e-05	 -6.196608e-06
5.326745e-05	 -4.751184e-05	 -1.154497e-05
2.884866e-05	 -2.591806e-05	 -1.495994e-05
0	 0	 -1.632706e-05
-2.884934e-05	 -2.591774e-05	 -1.495972e-05
-5.326870e-05	 -4.751125e-05	 1.154481e-05
-2.884934e-05	 -2.591774e-05	 1.495972e-05
2.884866e-05	 -2.591806e-05	 1.495994e-05
-7.714746e-05	 -6.662948e-05	 -7.002625e-13
7.714558e-05	 -6.663037e-05	 -2.987832e-14
-5.455149e-05	 -4.711415e-05	 -1.066827e-05
0	 0	 -1.508722e-05
-5.455149e-05	 -4.711416e-05	 1.066827e-05
0	 0	 1.508722e-05
0	 0	 1.508745e-05
5.455016e-05	 -4.711479e-05	 1.066844e-05
5.455016e-05	 -4.711479e-05	 -1.066844e-05
0	 0	 -1.508745e-05
-5.582655e-05	 -4.669893e-05	 9.792722e-06
5.582513e-05	 -4.669959e-05	 -9.792887e-06
7.298382e-05	 -6.148890e-05	 5.314274e-06
3.023089e-05	 -2.546954e-05	 -1.282979e-05
0	 0	 -1.384900e-05
-3.023165e-05	 -2.546918e-05	 -1.282958e-05
0	 0	 1.384900e-05
-7.895066e-05	 -6.604225e-05	 -5.373277e-13
0	 0	 1.384923e-05
3.023089e-05	 -2.546954e-05	 1.282979e-05
7.894867e-05	 -6.604319e-05	 -2.249364e-14
0	 0	 -1.384923e-05
-7.298566e-05	 -6.148804e-05	 -5.314185e-06
-7.298566e-05	 -6.148805e-05	 5.314185e-06
-5.582655e-05	 -4.669892e-05	 -9.792722e-06
5.582514e-05	 -4.669958e-05	 9.792887e-06
7.298382e-05	 -6.148890e-05	 -5.314274e-06
-3.023165e-05	 -2.546919e-05	 1.282958e-05
-8.073762e-05	 -6.544422e-05	 -3.740657e-13
-5.709012e-05	 -4.627605e-05	 8.916565e-06
5.708863e-05	 -4.627674e-05	 -8.916728e-06
0	 0	 1.261016e-05
0	 0	 -1.261016e-05
8.073551e-05	 -6.544520e-05	 -1.521693e-14
0	 0	 -1.260993e-05
0	 0	 1.260993e-05
-5.709012e-05	 -4.627604e-05	 -8.916565e-06
5.708863e-05	 -4.627674e-05	 8.916728e-06
-7.627724e-05	 -6.032426e-05	 -4.430195e-06
0	 0	 -1.136752e-05
-7.627724e-05	 -6.032427e-05	 4.430194e-06
0	 0	 1.136752e-05
-8.251965e-05	 -6.481460e-05	 -2.096924e-13
0	 0	 1.136775e-05
0	 0	 -1.136775e-05
7.627519e-05	 -6.032521e-05	 4.430282e-06
7.627519e-05	 -6.032521e-05	 -4.430282e-06
3.159422e-05	 -2.498752e-05	 -1.069565e-05
-3.159507e-05	 -2.498712e-05	 -1.069544e-05
-5.835020e-05	 -4.583083e-05	 -8.038049e-06
-5.835020e-05	 -4.583085e-05	 8.038049e-06
-3.159507e-05	 -2.498713e-05	 1.069544e-05
8.251743e-05	 -6.481563e-05	 -7.736679e-15
3.159422e-05	 -2.498752e-05	 1.069565e-05
5.834863e-05	 -4.583157e-05	 -8.038210e-06
5.834864e-05	 -4.583157e-05	 8.038210e-06
-4.646612e-05	 -2.559484e-05	 -6.060576e-06
4.646529e-05	 -2.559680e-05	 6.060985e-06
0	 0	 -8.570947e-06
-6.571301e-05	 -3.619658e-05	 -1.263984e-12
0	 0	 8.570950e-06
0	 0	 8.571527e-06
6.571184e-05	 -3.619935e-05	 5.754428e-13
0	 0	 -8.571528e-06
-4.646612e-05	 -2.559486e-05	 6.060576e-06
4.646529e-05	 -2.559681e-05	 -6.060985e-06
-4.968084e-05	 -2.505795e-05	 -5.137242e-06
0	 0	 -7.265157e-06
0	 0	 7.265159e-06
4.967982e-05	 -2.505995e-05	 5.137603e-06
4.967982e-05	 -2.505996e-05	 -5.137603e-06
0	 0	 7.265668e-06
0	 0	 -7.265668e-06
-4.968084e-05	 -2.505797e-05	 5.137242e-06
7.025788e-05	 -3.544012e-05	 3.626108e-13
-7.025932e-05	 -3.543731e-05	 -7.959946e-13
7.482083e-05	 -3.461893e-05	 1.497576e-13
0	 0	 -5.957373e-06
-7.482253e-05	 -3.461606e-05	 -3.275486e-13
0	 0	 5.957374e-06
0	 0	 5.957815e-06
0	 0	 -5.957815e-06
-5.290752e-05	 -2.447726e-05	 4.212499e-06
-5.290752e-05	 -2.447724e-05	 -4.212499e-06
5.290632e-05	 -2.447928e-05	 4.212811e-06
5.290631e-05	 -2.447929e-05	 -4.212811e-06
0	 0	 6.426803e-10
-2.370557e-05	 1.622243e-09	 5.884994e-10
-4.396369e-05	 2.973051e-09	 4.535945e-10
-5.723030e-05	 3.908562e-09	 2.426498e-10
-6.217405e-05	 4.194031e-09	 -1.204264e-12
-5.723031e-05	 3.897404e-09	 -2.442342e-10
-4.396369e-05	 2.958189e-09	 -4.536083e-10
-2.370557e-05	 1.611089e-09	 -5.869438e-10
0	 0	 -6.403016e-10
0	 0	 5.849343e-10
-6.482744e-05	 4.201737e-09	 -9.728815e-13
0	 0	 -5.830181e-10
-4.583992e-05	 2.963609e-09	 -4.129393e-10
-4.583992e-05	 2.978530e-09	 4.129254e-10
-4.771460e-05	 2.982467e-09	 3.723594e-10
-6.216428e-05	 3.919314e-09	 2.017711e-10
0	 0	 5.273354e-10
-2.574929e-05	 1.626710e-09	 4.889158e-10
-6.216428e-05	 3.908108e-09	 -2.028312e-10
-2.574929e-05	 1.615509e-09	 -4.878846e-10
0	 0	 -5.258792e-10
-6.747864e-05	 4.207276e-09	 -7.427436e-13
-4.771460e-05	 2.967505e-09	 -3.723735e-10
-7.011272e-05	 4.211565e-09	 -5.121584e-13
-4.957718e-05	 2.970518e-09	 -3.317459e-10
0	 0	 4.696487e-10
-4.957718e-05	 2.985519e-09	 3.317316e-10
0	 0	 -4.686534e-10
0	 0	 4.117516e-10
-2.778468e-05	 1.628278e-09	 3.890888e-10
-6.707815e-05	 3.923094e-09	 1.607931e-10
-7.275858e-05	 4.213386e-09	 -2.797509e-13
-6.707815e-05	 3.911882e-09	 -1.613268e-10
-5.144808e-05	 2.971797e-09	 -2.909708e-10
-2.778468e-05	 1.617071e-09	 -3.885840e-10
0	 0	 -4.112208e-10
-5.144808e-05	 2.986816e-09	 2.909563e-10
5.144700e-05	 -3.927773e-10	 1.315633e-10
0	 0	 1.858450e-10
2.778409e-05	 -2.102758e-10	 1.732704e-10
6.707674e-05	 -5.140514e-10	 7.205442e-11
7.275704e-05	 -5.640190e-10	 2.095849e-13
6.707674e-05	 -5.230387e-10	 -7.166122e-11
5.144699e-05	 -4.048116e-10	 -1.315791e-10
2.778409e-05	 -2.192545e-10	 -1.736979e-10
0	 0	 -1.863010e-10
0	 0	 1.935288e-10
4.957619e-05	 -3.917658e-10	 1.371286e-10
0	 0	 -1.943546e-10
7.011132e-05	 -5.625793e-10	 3.947703e-13
4.957619e-05	 -4.037870e-10	 -1.371447e-10
6.747737e-05	 -5.618881e-10	 5.784347e-13
4.771371e-05	 -4.032831e-10	 -1.427314e-10
0	 0	 2.012442e-10
2.574881e-05	 -2.092902e-10	 1.862321e-10
6.216312e-05	 -5.206562e-10	 -7.690755e-11
2.574881e-05	 -2.182671e-10	 -1.870836e-10
0	 0	 -2.024367e-10
4.771371e-05	 -3.912926e-10	 1.427150e-10
6.216312e-05	 -5.116708e-10	 7.772468e-11
4.583913e-05	 -3.909464e-10	 1.483057e-10
4.583912e-05	 -4.029038e-10	 -1.483224e-10
0	 0	 2.089659e-10
6.482631e-05	 -5.613751e-10	 7.617499e-13
0	 0	 -2.105244e-10
0	 0	 2.166216e-10
2.370519e-05	 -2.089830e-10	 1.991693e-10
4.396299e-05	 -3.910491e-10	 1.538506e-10
5.722940e-05	 -5.109037e-10	 8.338362e-11
6.217305e-05	 -5.614857e-10	 9.461770e-13
5.722940e-05	 -5.198533e-10	 -8.214421e-11
4.396299e-05	 -4.029579e-10	 -1.538675e-10
2.370519e-05	 -2.179242e-10	 -2.004430e-10
0	 0	 -2.185484e-10
-5.290729e-05	 2.448273e-05	 4.213038e-06
-5.290730e-05	 2.448272e-05	 -4.213038e-06
5.290625e-05	 2.447833e-05	 -4.212554e-06
5.290625e-05	 2.447832e-05	 4.212554e-06
0	 0	 5.958136e-06
0	 0	 -5.958136e-06
0	 0	 -5.957451e-06
7.482074e-05	 3.461758e-05	 2.661011e-13
0	 0	 5.957451e-06
-7.482222e-05	 3.462380e-05	 -2.296342e-13
7.025786e-05	 3.543877e-05	 6.690040e-13
-7.025920e-05	 3.544501e-05	 -5.483915e-13
4.967981e-05	 2.505899e-05	 5.137319e-06
0	 0	 7.266126e-06
0	 0	 -7.266125e-06
-4.968076e-05	 2.506341e-05	 5.137927e-06
-4.968076e-05	 2.506340e-05	 -5.137927e-06
0	 0	 -7.265267e-06
0	 0	 7.265266e-06
4.967981e-05	 2.505900e-05	 -5.137319e-06
-4.646618e-05	 2.560026e-05	 -6.061405e-06
4.646532e-05	 2.559583e-05	 6.060675e-06
0	 0	 8.572122e-06
-6.571309e-05	 3.620424e-05	 -8.670045e-13
0	 0	 -8.572121e-06
0	 0	 -8.571090e-06
6.571188e-05	 3.619798e-05	 1.071747e-12
0	 0	 8.571088e-06
-4.646617e-05	 2.560027e-05	 6.061405e-06
4.646532e-05	 2.559585e-05	 -6.060675e-06
-5.834940e-05	 4.583489e-05	 8.038424e-06
-5.834941e-05	 4.583489e-05	 -8.038424e-06
-3.159464e-05	 2.498933e-05	 1.069594e-05
-8.251852e-05	 6.482032e-05	 -4.891491e-14
3.159409e-05	 2.498676e-05	 -1.069533e-05
5.834840e-05	 4.583017e-05	 -8.037970e-06
5.834840e-05	 4.583016e-05	 8.037970e-06
3.159409e-05	 2.498675e-05	 1.069533e-05
-7.627621e-05	 6.032958e-05	 4.430402e-06
-7.627622e-05	 6.032958e-05	 -4.430402e-06
-3.159464e-05	 2.498933e-05	 -1.069594e-05
0	 0	 1.136805e-05
0	 0	 -1.136805e-05
8.251710e-05	 6.481364e-05	 1.612816e-13
0	 0	 -1.136741e-05
7.627489e-05	 6.032337e-05	 4.430151e-06
0	 0	 1.136741e-05
7.627489e-05	 6.032337e-05	 -4.430150e-06
-5.708944e-05	 4.628005e-05	 8.916988e-06
5.708843e-05	 4.627533e-05	 -8.916469e-06
0	 0	 -1.260979e-05
0	 0	 1.260979e-05
-8.073666e-05	 6.544987e-05	 -8.195202e-14
0	 0	 1.261053e-05
0	 0	 -1.261053e-05
-5.708944e-05	 4.628004e-05	 -8.916988e-06
5.708843e-05	 4.627532e-05	 8.916469e-06
8.073524e-05	 6.544320e-05	 3.043203e-13
3.023080e-05	 2.546876e-05	 1.282943e-05
-5.582599e-05	 4.670287e-05	 9.793192e-06
-7.298496e-05	 6.149323e-05	 -5.314441e-06
5.582498e-05	 4.669816e-05	 -9.792608e-06
7.298362e-05	 6.148703e-05	 5.314123e-06
7.298362e-05	 6.148704e-05	 -5.314123e-06
0	 0	 1.384967e-05
-3.023136e-05	 2.547133e-05	 1.283019e-05
-7.894987e-05	 6.604783e-05	 -1.148003e-13
0	 0	 -1.384967e-05
7.894844e-05	 6.604117e-05	 4.462054e-13
0	 0	 -1.384884e-05
3.023080e-05	 2.546877e-05	 -1.282943e-05
0	 0	 1.384884e-05
-7.298495e-05	 6.149323e-05	 5.314440e-06
-3.023136e-05	 2.547133e-05	 -1.283019e-05
-5.582599e-05	 4.670287e-05	 -9.793192e-06
5.582498e-05	 4.669815e-05	 9.792608e-06
0	 0	 1.508795e-05
-5.455105e-05	 4.711805e-05	 1.066879e-05
-5.455106e-05	 4.711805e-05	 -1.066879e-05
0	 0	 -1.508795e-05
0	 0	 -1.508703e-05
5.455004e-05	 4.711334e-05	 1.066814e-05
0	 0	 1.508703e-05
5.455004e-05	 4.711335e-05	 -1.066814e-05
-7.714684e-05	 6.663499e-05	 -1.474754e-13
7.714541e-05	 6.662834e-05	 5.878363e-13
-2.884918e-05	 2.591983e-05	 1.496045e-05
2.884862e-05	 2.591728e-05	 -1.495953e-05
5.326737e-05	 4.751039e-05	 1.154466e-05
2.884862e-05	 2.591727e-05	 1.495952e-05
0	 0	 1.632762e-05
-5.326838e-05	 4.751508e-05	 1.154537e-05
-7.533287e-05	 6.719647e-05	 -1.802093e-13
-6.964807e-05	 6.257600e-05	 -6.196821e-06
-5.326838e-05	 4.751508e-05	 -1.154537e-05
-2.884918e-05	 2.591983e-05	 -1.496045e-05
0	 0	 -1.632762e-05
0	 0	 -1.632661e-05
5.326737e-05	 4.751040e-05	 -1.154466e-05
7.533143e-05	 6.718984e-05	 7.302548e-13
6.964673e-05	 6.256983e-05	 6.196439e-06
0	 0	 1.632661e-05
-6.964807e-05	 6.257600e-05	 6.196821e-06
6.964673e-05	 6.256983e-05	 -6.196438e-06
0	 0	 1.535386e-05
-9.019460e-05	 8.550422e-05	 1.405318e-13