# vtk DataFile Version 3.0
Unstructured Grid Example
ASCII
DATASET UNSTRUCTURED_GRID
POINTS 832 float
-1	 0	 0
-1	 0	 3.750000e-01
-1	 0	 7.500000e-01
-1	 0	 1.125000e+00
-1	 0	 1.500000e+00
-1	 0	 1.875000e+00
-1	 0	 2.250000e+00
-1	 0	 2.625000e+00
-1	 0	 3
-9.875000e-01	 0	 0
-9.875000e-01	 0	 1.500000e+00
-9.875000e-01	 0	 3
-9.875000e-01	 0	 2.250000e+00
-9.875000e-01	 0	 7.500000e-01
-9.833054e-01	 -1.819631e-01	 7.500000e-01
-9.833054e-01	 -1.819631e-01	 0
-9.833054e-01	 -1.819631e-01	 1.500000e+00
-9.833054e-01	 -1.819631e-01	 3.000000e+00
-9.833054e-01	 1.819631e-01	 2.250000e+00
-9.833054e-01	 1.819631e-01	 0
-9.833054e-01	 1.819631e-01	 1.500000e+00
-9.833054e-01	 1.819631e-01	 3.000000e+00
-9.833054e-01	 1.819631e-01	 7.500000e-01
-9.833054e-01	 -1.819631e-01	 2.250000e+00
-9.750000e-01	 0	 7.500000e-01
-9.750000e-01	 0	 1.125000e+00
-9.750000e-01	 0	 0
-9.750000e-01	 0	 3.750000e-01
-9.750000e-01	 0	 1.875000e+00
-9.750000e-01	 0	 2.625000e+00
-9.750000e-01	 0	 3
-9.750000e-01	 0	 1.500000e+00
-9.750000e-01	 0	 2.250000e+00
-9.625000e-01	 0	 1.500000e+00
-9.625000e-01	 0	 2.250000e+00
-9.625000e-01	 0	 0
-9.625000e-01	 0	 7.500000e-01
-9.625000e-01	 0	 3
-9.587227e-01	 -1.774140e-01	 0
-9.587227e-01	 -1.774140e-01	 3.000000e+00
-9.587227e-01	 -1.774140e-01	 1.500000e+00
-9.587227e-01	 1.774140e-01	 0
-9.587227e-01	 1.774140e-01	 3.000000e+00
-9.587227e-01	 1.774140e-01	 1.500000e+00
-9.587227e-01	 1.774140e-01	 7.500000e-01
-9.587227e-01	 -1.774140e-01	 7.500000e-01
-9.587227e-01	 -1.774140e-01	 2.250000e+00
-9.587227e-01	 1.774140e-01	 2.250000e+00
-9.500000e-01	 0	 0
-9.500000e-01	 0	 3.750000e-01
-9.500000e-01	 0	 1.125000e+00
-9.500000e-01	 0	 1.500000e+00
-9.500000e-01	 0	 1.875000e+00
-9.500000e-01	 0	 2.250000e+00
-9.500000e-01	 0	 2.625000e+00
-9.500000e-01	 0	 3
-9.500000e-01	 0	 7.500000e-01
-9.341401e-01	 -1.728649e-01	 1.500000e+00
-9.341401e-01	 -1.728649e-01	 0
-9.341401e-01	 -1.728649e-01	 3.000000e+00
-9.341401e-01	 1.728649e-01	 2.250000e+00
-9.341401e-01	 1.728649e-01	 0
-9.341401e-01	 1.728649e-01	 1.500000e+00
-9.341401e-01	 1.728649e-01	 3.000000e+00
-9.341401e-01	 -1.728649e-01	 7.500000e-01
-9.341401e-01	 -1.728649e-01	 2.250000e+00
-9.341401e-01	 1.728649e-01	 7.500000e-01
-9.297883e-01	 -3.680947e-01	 1.125000e+00
-9.297883e-01	 -3.680947e-01	 0
-9.297883e-01	 -3.680947e-01	 7.500000e-01
-9.297883e-01	 -3.680947e-01	 1.500000e+00
-9.297883e-01	 -3.680947e-01	 1.875000e+00
-9.297883e-01	 -3.680947e-01	 2.250000e+00
-9.297883e-01	 -3.680947e-01	 2.625000e+00
-9.297883e-01	 -3.680947e-01	 3.000000e+00
-9.297883e-01	 -3.680947e-01	 3.750000e-01
-9.297883e-01	 3.680947e-01	 3.750000e-01
-9.297883e-01	 3.680947e-01	 2.250000e+00
-9.297883e-01	 3.680947e-01	 2.625000e+00
-9.297883e-01	 3.680947e-01	 0
-9.297883e-01	 3.680947e-01	 7.500000e-01
-9.297883e-01	 3.680947e-01	 1.500000e+00
-9.297883e-01	 3.680947e-01	 1.875000e+00
-9.297883e-01	 3.680947e-01	 3.000000e+00
-9.297883e-01	 3.680947e-01	 1.125000e+00
-9.181659e-01	 3.634935e-01	 7.500000e-01
-9.181659e-01	 -3.634935e-01	 0
-9.181659e-01	 -3.634935e-01	 7.500000e-01
-9.181659e-01	 -3.634935e-01	 2.250000e+00
-9.181659e-01	 -3.634935e-01	 3
-9.181659e-01	 3.634935e-01	 0
-9.181659e-01	 3.634935e-01	 2.250000e+00
-9.181659e-01	 3.634935e-01	 3
-9.181659e-01	 -3.634935e-01	 1.500000e+00
-9.181659e-01	 3.634935e-01	 1.500000e+00
-9.065436e-01	 -3.588923e-01	 1.125000e+00
-9.065436e-01	 -3.588923e-01	 2.625000e+00
-9.065436e-01	 -3.588923e-01	 0
-9.065436e-01	 -3.588923e-01	 3.750000e-01
-9.065436e-01	 -3.588923e-01	 1.500000e+00
-9.065436e-01	 -3.588923e-01	 3
-9.065436e-01	 3.588923e-01	 2.625000e+00
-9.065436e-01	 3.588923e-01	 1.125000e+00
-9.065436e-01	 3.588923e-01	 0
-9.065436e-01	 3.588923e-01	 3.750000e-01
-9.065436e-01	 3.588923e-01	 3
-9.065436e-01	 -3.588923e-01	 7.500000e-01
-9.065436e-01	 -3.588923e-01	 1.875000e+00
-9.065436e-01	 3.588923e-01	 1.875000e+00
-9.065436e-01	 3.588923e-01	 1.500000e+00
-9.065436e-01	 -3.588923e-01	 2.250000e+00
-9.065436e-01	 3.588923e-01	 7.500000e-01
-9.065436e-01	 3.588923e-01	 2.250000e+00
-8.949212e-01	 3.542912e-01	 1.500000e+00
-8.949212e-01	 -3.542912e-01	 1.500000e+00
-8.949212e-01	 -3.542912e-01	 0
-8.949212e-01	 -3.542912e-01	 3.000000e+00
-8.949212e-01	 3.542912e-01	 0
-8.949212e-01	 3.542912e-01	 3.000000e+00
-8.949212e-01	 -3.542912e-01	 2.250000e+00
-8.949212e-01	 -3.542912e-01	 7.500000e-01
-8.949212e-01	 3.542912e-01	 2.250000e+00
-8.949212e-01	 3.542912e-01	 7.500000e-01
-8.832989e-01	 -3.496900e-01	 1.125000e+00
-8.832989e-01	 -3.496900e-01	 1.875000e+00
-8.832989e-01	 -3.496900e-01	 2.625000e+00
-8.832989e-01	 -3.496900e-01	 2.250000e+00
-8.832989e-01	 3.496900e-01	 1.125000e+00
-8.832989e-01	 -3.496900e-01	 0
-8.832989e-01	 -3.496900e-01	 3.000000e+00
-8.832989e-01	 -3.496900e-01	 3.750000e-01
-8.832989e-01	 -3.496900e-01	 7.500000e-01
-8.832989e-01	 3.496900e-01	 3.750000e-01
-8.832989e-01	 3.496900e-01	 7.500000e-01
-8.832989e-01	 3.496900e-01	 2.250000e+00
-8.832989e-01	 3.496900e-01	 2.625000e+00
-8.832989e-01	 3.496900e-01	 0
-8.832989e-01	 3.496900e-01	 1.875000e+00
-8.832989e-01	 3.496900e-01	 3.000000e+00
-8.832989e-01	 -3.496900e-01	 1.500000e+00
-8.832989e-01	 3.496900e-01	 1.500000e+00
-8.369955e-01	 -5.472098e-01	 0
-8.369955e-01	 -5.472098e-01	 7.500000e-01
-8.369955e-01	 -5.472098e-01	 1.500000e+00
-8.369955e-01	 -5.472098e-01	 2.250000e+00
-8.369955e-01	 -5.472098e-01	 3
-8.369955e-01	 5.472098e-01	 0
-8.369955e-01	 5.472098e-01	 7.500000e-01
-8.369955e-01	 5.472098e-01	 1.500000e+00
-8.369955e-01	 5.472098e-01	 2.250000e+00
-8.369955e-01	 5.472098e-01	 3
-8.160706e-01	 -5.335295e-01	 7.500000e-01
-8.160706e-01	 5.335295e-01	 7.500000e-01
-8.160706e-01	 -5.335295e-01	 1.500000e+00
-8.160706e-01	 -5.335295e-01	 2.250000e+00
-8.160706e-01	 5.335295e-01	 1.500000e+00
-8.160706e-01	 5.335295e-01	 2.250000e+00
-8.160706e-01	 -5.335295e-01	 0
-8.160706e-01	 -5.335295e-01	 3.000000e+00
-8.160706e-01	 5.335295e-01	 0
-8.160706e-01	 5.335295e-01	 3.000000e+00
-7.951457e-01	 -5.198493e-01	 7.500000e-01
-7.951457e-01	 5.198493e-01	 7.500000e-01
-7.951457e-01	 -5.198493e-01	 0
-7.951457e-01	 -5.198493e-01	 1.500000e+00
-7.951457e-01	 -5.198493e-01	 2.250000e+00
-7.951457e-01	 -5.198493e-01	 3
-7.951457e-01	 5.198493e-01	 0
-7.951457e-01	 5.198493e-01	 1.500000e+00
-7.951457e-01	 5.198493e-01	 2.250000e+00
-7.951457e-01	 5.198493e-01	 3
-7.071068e-01	 -7.071068e-01	 0
-7.071068e-01	 -7.071068e-01	 3.750000e-01
-7.071068e-01	 -7.071068e-01	 7.500000e-01
-7.071068e-01	 -7.071068e-01	 1.125000e+00
-7.071068e-01	 -7.071068e-01	 1.500000e+00
-7.071068e-01	 -7.071068e-01	 1.875000e+00
-7.071068e-01	 -7.071068e-01	 2.250000e+00
-7.071068e-01	 -7.071068e-01	 2.625000e+00
-7.071068e-01	 -7.071068e-01	 3.000000e+00
-7.071068e-01	 7.071068e-01	 0
-7.071068e-01	 7.071068e-01	 3.750000e-01
-7.071068e-01	 7.071068e-01	 7.500000e-01
-7.071068e-01	 7.071068e-01	 1.125000e+00
-7.071068e-01	 7.071068e-01	 1.500000e+00
-7.071068e-01	 7.071068e-01	 1.875000e+00
-7.071068e-01	 7.071068e-01	 2.250000e+00
-7.071068e-01	 7.071068e-01	 2.625000e+00
-7.071068e-01	 7.071068e-01	 3.000000e+00
-6.982679e-01	 -6.982679e-01	 7.500000e-01
-6.982679e-01	 6.982679e-01	 7.500000e-01
-6.982679e-01	 -6.982679e-01	 0
-6.982679e-01	 -6.982679e-01	 2.250000e+00
-6.982679e-01	 -6.982679e-01	 3.000000e+00
-6.982679e-01	 6.982679e-01	 0
-6.982679e-01	 6.982679e-01	 2.250000e+00
-6.982679e-01	 6.982679e-01	 3.000000e+00
-6.982679e-01	 -6.982679e-01	 1.500000e+00
-6.982679e-01	 6.982679e-01	 1.500000e+00
-6.894291e-01	 -6.894291e-01	 3.750000e-01
-6.894291e-01	 -6.894291e-01	 2.625000e+00
-6.894291e-01	 -6.894291e-01	 0
-6.894291e-01	 -6.894291e-01	 1.500000e+00
-6.894291e-01	 -6.894291e-01	 2.250000e+00
-6.894291e-01	 -6.894291e-01	 3.000000e+00
-6.894291e-01	 6.894291e-01	 3.750000e-01
-6.894291e-01	 6.894291e-01	 2.625000e+00
-6.894291e-01	 -6.894291e-01	 1.875000e+00
-6.894291e-01	 6.894291e-01	 1.875000e+00
-6.894291e-01	 -6.894291e-01	 7.500000e-01
-6.894291e-01	 -6.894291e-01	 1.125000e+00
-6.894291e-01	 6.894291e-01	 0
-6.894291e-01	 6.894291e-01	 1.500000e+00
-6.894291e-01	 6.894291e-01	 2.250000e+00
-6.894291e-01	 6.894291e-01	 3.000000e+00
-6.894291e-01	 6.894291e-01	 7.500000e-01
-6.894291e-01	 6.894291e-01	 1.125000e+00
-6.805903e-01	 6.805903e-01	 7.500000e-01
-6.805903e-01	 -6.805903e-01	 7.500000e-01
-6.805903e-01	 -6.805903e-01	 0
-6.805903e-01	 -6.805903e-01	 1.500000e+00
-6.805903e-01	 -6.805903e-01	 3.000000e+00
-6.805903e-01	 6.805903e-01	 0
-6.805903e-01	 6.805903e-01	 1.500000e+00
-6.805903e-01	 6.805903e-01	 3.000000e+00
-6.805903e-01	 6.805903e-01	 2.250000e+00
-6.805903e-01	 -6.805903e-01	 2.250000e+00
-6.717514e-01	 -6.717514e-01	 2.625000e+00
-6.717514e-01	 6.717514e-01	 2.625000e+00
-6.717514e-01	 -6.717514e-01	 0
-6.717514e-01	 -6.717514e-01	 3.750000e-01
-6.717514e-01	 -6.717514e-01	 7.500000e-01
-6.717514e-01	 -6.717514e-01	 1.125000e+00
-6.717514e-01	 -6.717514e-01	 1.875000e+00
-6.717514e-01	 -6.717514e-01	 3.000000e+00
-6.717514e-01	 -6.717514e-01	 2.250000e+00
-6.717514e-01	 6.717514e-01	 1.500000e+00
-6.717514e-01	 6.717514e-01	 0
-6.717514e-01	 6.717514e-01	 3.750000e-01
-6.717514e-01	 6.717514e-01	 7.500000e-01
-6.717514e-01	 6.717514e-01	 1.125000e+00
-6.717514e-01	 6.717514e-01	 1.875000e+00
-6.717514e-01	 6.717514e-01	 3.000000e+00
-6.717514e-01	 -6.717514e-01	 1.500000e+00
-6.717514e-01	 6.717514e-01	 2.250000e+00
-5.472098e-01	 -8.369955e-01	 0
-5.472098e-01	 -8.369955e-01	 7.500000e-01
-5.472098e-01	 -8.369955e-01	 1.500000e+00
-5.472098e-01	 -8.369955e-01	 2.250000e+00
-5.472098e-01	 -8.369955e-01	 3
-5.472098e-01	 8.369955e-01	 0
-5.472098e-01	 8.369955e-01	 7.500000e-01
-5.472098e-01	 8.369955e-01	 1.500000e+00
-5.472098e-01	 8.369955e-01	 2.250000e+00
-5.472098e-01	 8.369955e-01	 3
-5.335295e-01	 -8.160706e-01	 1.500000e+00
-5.335295e-01	 -8.160706e-01	 2.250000e+00
-5.335295e-01	 8.160706e-01	 0
-5.335295e-01	 8.160706e-01	 3.000000e+00
[...]
POINT_DATA 832
VECTORS displacement float
0	 0	 -3.112776e-11
-7.703792e-10	 -2.141807e-10	 -2.975346e-11
-1.407434e-09	 -3.994179e-10	 -2.201057e-11
-1.859859e-09	 -5.170775e-10	 -1.232418e-11
-1.990411e-09	 -5.648617e-10	 1.157464e-16
-1.859858e-09	 -5.170770e-10	 1.232435e-11
-1.407433e-09	 -3.994171e-10	 2.201061e-11
-7.703783e-10	 -2.141802e-10	 2.975337e-11
0	 0	 3.112760e-11
0	 0	 -5.679457e-12
-1.998107e-09	 -3.614301e-10	 9.679585e-17
0	 0	 5.679336e-12
-1.412875e-09	 -2.555692e-10	 4.015958e-12
-1.412876e-09	 -2.555701e-10	 -4.015922e-12
6.957545e-10	 -2.142784e-10	 9.155081e-11
0	 0	 1.294722e-10
9.839471e-10	 -3.030348e-10	 2.199643e-16
0	 0	 -1.294726e-10
-2.270738e-09	 -4.928386e-11	 6.219084e-11
0	 0	 -8.795105e-11
-3.211309e-09	 -6.969849e-11	 -1.289039e-17
0	 0	 8.795116e-11
-2.270738e-09	 -4.928469e-11	 -6.219080e-11
6.957569e-10	 -2.142775e-10	 -9.155078e-11
-1.414494e-09	 -1.143438e-10	 1.363967e-11
-1.866065e-09	 -1.516110e-10	 7.761911e-12
0	 0	 1.928934e-11
-7.729497e-10	 -6.279952e-11	 1.873874e-11
-1.866064e-09	 -1.516103e-10	 -7.761789e-12
-7.729488e-10	 -6.279886e-11	 -1.873879e-11
0	 0	 -1.928942e-11
-2.000396e-09	 -1.617058e-10	 7.795631e-17
-1.414493e-09	 -1.143428e-10	 -1.363963e-11
-2.001637e-09	 3.754170e-11	 5.908095e-17
-1.415371e-09	 2.654652e-11	 -3.135850e-11
0	 0	 4.434762e-11
-1.415372e-09	 2.654547e-11	 3.135854e-11
0	 0	 -4.434767e-11
0	 0	 1.054207e-10
0	 0	 -1.054209e-10
9.158768e-10	 7.627726e-11	 1.430995e-16
0	 0	 -8.003993e-12
0	 0	 8.004077e-12
-3.228261e-09	 -1.326050e-10	 5.134013e-19
-2.282725e-09	 -9.376638e-11	 -5.659686e-12
6.476215e-10	 5.393566e-11	 7.454379e-11
6.476239e-10	 5.393667e-11	 -7.454376e-11
-2.282726e-09	 -9.376535e-11	 5.659729e-12
0	 0	 6.984381e-11
-7.700777e-10	 8.773512e-11	 6.740438e-11
-1.859131e-09	 2.118119e-10	 2.791985e-11
-1.996083e-09	 2.391662e-10	 4.005100e-17
-1.859130e-09	 2.118127e-10	 -2.791977e-11
-1.411443e-09	 1.691166e-10	 -4.938702e-11
-7.700768e-10	 8.773593e-11	 -6.740439e-11
0	 0	 -6.984382e-11
-1.411445e-09	 1.691154e-10	 4.938705e-11
8.410930e-10	 4.576653e-10	 6.614846e-17
0	 0	 8.133437e-11
0	 0	 -8.133444e-11
-2.273251e-09	 -1.429471e-10	 -5.061977e-11
0	 0	 7.158723e-11
-3.214862e-09	 -2.021586e-10	 1.397608e-17
0	 0	 -7.158717e-11
5.947414e-10	 3.236177e-10	 5.751212e-11
5.947438e-10	 3.236188e-10	 -5.751209e-11
-2.273251e-09	 -1.429484e-10	 5.061982e-11
3.092783e-09	 5.101308e-10	 9.703215e-11
0	 0	 2.540833e-10
2.345385e-09	 3.763517e-10	 1.796642e-10
3.316878e-09	 5.322424e-10	 2.497354e-16
3.092785e-09	 5.101317e-10	 -9.703182e-11
2.345388e-09	 3.763528e-10	 -1.796642e-10
1.281074e-09	 2.113037e-10	 -2.342561e-10
0	 0	 -2.540838e-10
1.281072e-09	 2.113029e-10	 2.342558e-10
-3.836098e-10	 -1.369894e-10	 9.201797e-11
-6.981168e-10	 -2.527533e-10	 -7.012988e-11
-3.836110e-10	 -1.369885e-10	 -9.201770e-11
0	 0	 9.917886e-11
-6.981152e-10	 -2.527546e-10	 7.012993e-11
-9.872851e-10	 -3.574481e-10	 -1.376880e-16
-9.261181e-10	 -3.307201e-10	 -3.811512e-11
0	 0	 -9.917848e-11
-9.261169e-10	 -3.307211e-10	 3.811495e-11
-7.625437e-10	 -4.110578e-10	 7.730289e-11
0	 0	 2.111130e-10
2.322359e-09	 4.556840e-10	 1.492796e-10
2.322362e-09	 4.556851e-10	 -1.492795e-10
0	 0	 -2.111133e-10
0	 0	 1.093229e-10
-7.625453e-10	 -4.110564e-10	 -7.730285e-11
0	 0	 -1.093226e-10
3.284314e-09	 6.444352e-10	 2.040101e-16
-1.078401e-09	 -5.813225e-10	 -1.062843e-16
3.026254e-09	 7.058649e-10	 6.411669e-11
1.253517e-09	 2.923794e-10	 -1.547912e-10
0	 0	 1.687135e-10
1.253515e-09	 2.923786e-10	 1.547910e-10
3.246289e-09	 7.524043e-10	 1.585040e-16
0	 0	 -1.687137e-10
-4.499904e-10	 -3.040022e-10	 -1.111932e-10
-1.086371e-09	 -7.339280e-10	 4.605772e-11
0	 0	 1.192487e-10
-4.499892e-10	 -3.040033e-10	 1.111934e-10
0	 0	 -1.192484e-10
2.295472e-09	 5.320296e-10	 1.192985e-10
3.026256e-09	 7.058657e-10	 -6.411646e-11
-1.086372e-09	 -7.339270e-10	 -4.605782e-11
-1.165618e-09	 -8.020561e-10	 -7.504275e-17
2.295474e-09	 5.320307e-10	 -1.192985e-10
-8.242153e-10	 -5.671400e-10	 8.432149e-11
-8.242169e-10	 -5.671386e-10	 -8.432144e-11
-1.252713e-09	 -1.021897e-09	 -4.377905e-17
3.207784e-09	 8.601312e-10	 1.129376e-16
0	 0	 1.262489e-10
0	 0	 -1.262491e-10
0	 0	 1.292402e-10
0	 0	 -1.292401e-10
2.268247e-09	 6.082052e-10	 -8.927153e-11
2.268245e-09	 6.082041e-10	 8.927155e-11
-8.858028e-10	 -7.225895e-10	 -9.138656e-11
-8.858013e-10	 -7.225910e-10	 9.138661e-11
2.946061e-09	 8.951646e-10	 3.111927e-11
2.946063e-09	 8.951654e-10	 -3.111914e-11
1.220300e-09	 3.707899e-10	 -7.512845e-11
2.235221e-09	 6.827847e-10	 -5.883958e-11
-1.240844e-09	 -1.136239e-09	 5.405705e-11
0	 0	 8.321170e-11
0	 0	 -8.321179e-11
1.220298e-09	 3.707891e-10	 7.512837e-11
2.235219e-09	 6.827836e-10	 5.883960e-11
-5.139743e-10	 -4.706460e-10	 1.305053e-10
-9.459803e-10	 -8.806935e-10	 9.860081e-11
-9.459818e-10	 -8.806919e-10	 -9.860076e-11
-5.139754e-10	 -4.706448e-10	 -1.305052e-10
0	 0	 1.394426e-10
-1.240846e-09	 -1.136238e-09	 -5.405707e-11
0	 0	 -1.394425e-10
3.161079e-09	 9.656025e-10	 6.702762e-17
-1.337819e-09	 -1.245488e-09	 -1.227354e-17
0	 0	 2.182750e-10
2.274950e-09	 6.329301e-10	 1.543439e-10
3.217266e-09	 8.950991e-10	 2.141335e-16
2.274952e-09	 6.329311e-10	 -1.543438e-10
0	 0	 -2.182753e-10
0	 0	 3.572856e-10
1.316701e-09	 -1.394333e-09	 2.526389e-10
1.862095e-09	 -1.971883e-09	 -2.201004e-16
1.316699e-09	 -1.394331e-09	 -2.526388e-10
0	 0	 -3.572850e-10
2.357608e-09	 5.126778e-10	 9.651762e-11
1.203120e-09	 -1.575066e-09	 2.036808e-10
3.334163e-09	 7.250365e-10	 1.390141e-16
2.357610e-09	 5.126787e-10	 -9.651760e-11
1.701467e-09	 -2.227478e-09	 -1.284003e-16
1.203118e-09	 -1.575064e-09	 -2.036808e-10
0	 0	 1.364964e-10
0	 0	 -1.364966e-10
0	 0	 2.880484e-10
0	 0	 -2.880480e-10
2.425982e-09	 3.812788e-10	 3.887266e-11
1.079498e-09	 -1.751477e-09	 1.547583e-10
0	 0	 5.497419e-11
3.430858e-09	 5.392102e-10	 6.382646e-17
2.425984e-09	 3.812796e-10	 -3.887265e-11
0	 0	 -5.497428e-11
0	 0	 2.188613e-10
1.526639e-09	 -2.476961e-09	 -3.660384e-17
1.079495e-09	 -1.751475e-09	 -1.547582e-10
0	 0	 -2.188611e-10
0	 0	 -6.682670e-11
2.047771e-10	 -3.676530e-10	 -6.135418e-11
3.739516e-10	 -6.731432e-10	 -4.725355e-11
4.943763e-10	 -8.875928e-10	 -2.541365e-11
5.288484e-10	 -9.519681e-10	 9.274693e-17
4.943772e-10	 -8.875926e-10	 2.541377e-11
3.739529e-10	 -6.731430e-10	 4.725356e-11
2.047780e-10	 -3.676528e-10	 6.135408e-11
0	 0	 6.682654e-11
0	 0	 4.665733e-10
1.061240e-09	 -1.171574e-09	 4.282188e-10
1.939178e-09	 -2.142908e-09	 3.299170e-10
2.562059e-09	 -2.828429e-09	 1.773738e-10
2.742411e-09	 -3.030528e-09	 -1.962340e-16
2.562058e-09	 -2.828428e-09	 -1.773741e-10
1.939176e-09	 -2.142906e-09	 -3.299170e-10
1.061239e-09	 -1.171573e-09	 -4.282184e-10
0	 0	 -4.665728e-10
5.127465e-10	 -8.126060e-10	 -4.437586e-11
1.942083e-09	 -2.152052e-09	 2.915826e-10
0	 0	 -6.275701e-11
5.127478e-10	 -8.126058e-10	 4.437587e-11
0	 0	 6.275689e-11
0	 0	 4.123602e-10
1.942081e-09	 -2.152050e-09	 -2.915825e-10
0	 0	 -4.123598e-10
7.251340e-10	 -1.149198e-09	 7.654529e-17
2.746519e-09	 -3.043459e-09	 -1.525352e-16
3.500695e-10	 -5.135014e-10	 -5.424314e-11
3.500705e-10	 -5.135013e-10	 5.424308e-11
0	 0	 -5.869724e-11
9.181364e-10	 -1.342905e-09	 6.041247e-17
6.492211e-10	 -9.495774e-10	 4.150519e-11
0	 0	 5.869715e-11
1.061538e-09	 -1.178400e-09	 3.300238e-10
1.061537e-09	 -1.178399e-09	 -3.300236e-10
8.451443e-10	 -1.239702e-09	 2.246828e-11
2.562777e-09	 -2.844907e-09	 -1.367004e-10
6.492198e-10	 -9.495775e-10	 -4.150517e-11
8.451433e-10	 -1.239702e-09	 -2.246819e-11
0	 0	 3.586702e-10
2.746237e-09	 -3.051849e-09	 -1.090451e-16
1.941882e-09	 -2.157982e-09	 -2.536180e-10
0	 0	 -3.586698e-10
1.941884e-09	 -2.157984e-09	 2.536180e-10
2.562779e-09	 -2.844909e-09	 1.367002e-10
1.941353e-09	 -2.163573e-09	 2.156021e-10
7.853065e-10	 -1.086137e-09	 -3.863084e-11
0	 0	 -5.463230e-11
1.110592e-09	 -1.536030e-09	 4.426231e-17
0	 0	 5.463225e-11
0	 0	 3.049075e-10
2.745487e-09	 -3.059754e-09	 -6.551283e-17
0	 0	 -3.049072e-10
1.941351e-09	 -2.163572e-09	 -2.156020e-10
7.853080e-10	 -1.086137e-09	 3.863086e-11
4.945532e-10	 -6.582917e-10	 4.710807e-11
1.057474e-09	 -1.180833e-09	 -2.315450e-10
0	 0	 -5.054662e-11
4.945521e-10	 -6.582917e-10	 -4.710809e-11
9.228729e-10	 -1.223961e-09	 -3.574184e-11
1.193955e-09	 -1.589257e-09	 -1.951278e-11
1.193956e-09	 -1.589257e-09	 1.951283e-11
0	 0	 5.054659e-11
9.228744e-10	 -1.223961e-09	 3.574185e-11
2.738898e-09	 -3.061915e-09	 -2.164935e-17
0	 0	 2.505601e-10
1.057476e-09	 -1.180834e-09	 2.315451e-10
1.936694e-09	 -2.165102e-09	 1.771727e-10
2.552972e-09	 -2.850786e-09	 9.590908e-11
2.552970e-09	 -2.850784e-09	 -9.590911e-11
0	 0	 -2.505599e-10
1.305140e-09	 -1.730943e-09	 2.799624e-17
1.936692e-09	 -2.165100e-09	 -1.771726e-10
0	 0	 -3.449356e-10
-8.941481e-10	 -2.546753e-09	 -2.439063e-10
-1.264516e-09	 -3.601653e-09	 -5.137948e-17
-8.941479e-10	 -2.546754e-09	 2.439063e-10
0	 0	 3.449357e-10
0	 0	 3.912446e-10
1.247308e-09	 -1.604563e-09	 2.766516e-10
1.763958e-09	 -2.269194e-09	 -1.044032e-16
1.247306e-09	 -1.604562e-09	 -2.766515e-10
0	 0	 -3.912442e-10
-1.107874e-09	 -3.711756e-09	 -3.039099e-17
-7.833849e-10	 -2.624608e-09	 1.759984e-10
0	 0	 3.160420e-10
0	 0	 -3.160418e-10
2.012669e-09	 -2.113708e-09	 -5.271020e-17
1.423171e-09	 -1.494617e-09	 -2.234753e-10
-7.833853e-10	 -2.624607e-09	 -1.759984e-10
0	 0	 -2.488993e-10
0	 0	 2.488994e-10
1.423173e-09	 -1.494618e-09	 2.234754e-10
1.594176e-09	 -1.373966e-09	 1.703383e-10
-6.612165e-10	 -2.687605e-09	 -1.082518e-10
0	 0	 -1.530911e-10
-9.351010e-10	 -3.800848e-09	 -9.405716e-18
-6.612160e-10	 -2.687606e-09	 1.082518e-10
0	 0	 1.530912e-10
0	 0	 2.408947e-10
2.254505e-09	 -1.943081e-09	 -9.517152e-19
1.594175e-09	 -1.373965e-09	 -1.703382e-10
0	 0	 -2.408946e-10
-7.730186e-10	 -3.316818e-09	 -1.376976e-10
1.198763e-10	 5.503119e-10	 5.912322e-11
0	 0	 -3.609767e-10
-5.772927e-10	 -2.516493e-09	 -2.552492e-10
-8.164154e-10	 -3.558860e-09	 -1.668274e-16
-7.730189e-10	 -3.316819e-09	 1.376973e-10
0	 0	 3.609771e-10
0	 0	 1.543374e-10
9.050077e-11	 4.116451e-10	 1.091330e-10
1.279869e-10	 5.821538e-10	 4.771989e-17
1.198758e-10	 5.503116e-10	 -5.912314e-11
9.050005e-11	 4.116447e-10	 -1.091330e-10
4.965406e-11	 2.279465e-10	 -1.427360e-10
0	 0	 -1.543374e-10
-3.201947e-10	 -1.373870e-09	 -3.324309e-10
-5.772930e-10	 -2.516495e-09	 2.552492e-10
-3.201950e-10	 -1.373872e-09	 3.324312e-10
4.965456e-11	 2.279467e-10	 1.427360e-10
-9.403757e-10	 -3.522272e-09	 -1.338008e-16
3.575949e-10	 6.747065e-10	 4.591925e-17
-6.649459e-10	 -2.490621e-09	 -2.216405e-10
0	 0	 -3.134468e-10
-6.649461e-10	 -2.490624e-09	 2.216405e-10
0	 0	 3.134471e-10
0	 0	 1.605441e-10
2.528582e-10	 4.770898e-10	 1.135218e-10
2.528573e-10	 4.770893e-10	 -1.135218e-10
0	 0	 -1.605441e-10
-7.494973e-10	 -2.460995e-09	 1.884250e-10
4.128449e-10	 5.399511e-10	 -1.177726e-10
5.330921e-10	 7.135043e-10	 6.415704e-11
2.208135e-10	 2.955429e-10	 -1.548887e-10
0	 0	 -2.664731e-10
-4.100610e-10	 -1.343359e-09	 -2.452123e-10
0	 0	 2.664733e-10
-1.059949e-09	 -3.480371e-09	 -1.009246e-16
0	 0	 1.665557e-10
2.208142e-10	 2.955432e-10	 1.548887e-10
5.838515e-10	 7.636065e-10	 4.410460e-17
0	 0	 -1.665556e-10
-9.899749e-10	 -3.243155e-09	 -1.015704e-10
-9.899750e-10	 -3.243157e-09	 1.015702e-10
-7.494972e-10	 -2.460993e-09	 -1.884250e-10
4.128458e-10	 5.399516e-10	 1.177726e-10
5.330914e-10	 7.135039e-10	 -6.415695e-11
-4.100611e-10	 -1.343360e-09	 2.452125e-10
-1.179228e-09	 -3.437984e-09	 -6.798896e-17
-8.338403e-10	 -2.431023e-09	 1.551615e-10
5.721857e-10	 6.027405e-10	 -1.220659e-10
0	 0	 1.726273e-10
0	 0	 -1.726273e-10
8.091935e-10	 8.524041e-10	 4.226062e-17
0	 0	 -2.194314e-10
0	 0	 2.194316e-10
-8.338402e-10	 -2.431021e-09	 -1.551615e-10
5.721868e-10	 6.027410e-10	 1.220660e-10
-1.200407e-09	 -3.155983e-09	 -6.535104e-11
0	 0	 -1.718142e-10
-1.200407e-09	 -3.155985e-09	 6.535097e-11
0	 0	 1.718143e-10
-1.296422e-09	 -3.387447e-09	 -3.480936e-17
0	 0	 1.788791e-10
0	 0	 -1.788790e-10
9.450768e-10	 8.715413e-10	 6.923800e-11
9.450760e-10	 8.715409e-10	 -6.923793e-11
3.914630e-10	 3.610039e-10	 -1.671552e-10
-4.972250e-10	 -1.307251e-09	 -1.577712e-10
-9.167087e-10	 -2.395286e-09	 -1.214910e-10
-9.167087e-10	 -2.395288e-09	 1.214910e-10
-4.972251e-10	 -1.307252e-09	 1.577713e-10
1.038179e-09	 9.395884e-10	 4.041739e-17
3.914639e-10	 3.610043e-10	 1.671553e-10
7.341029e-10	 6.643890e-10	 -1.264866e-10
7.341040e-10	 6.643896e-10	 1.264866e-10
2.850604e-11	 -7.820045e-10	 -1.527874e-10
-1.414508e-10	 2.062589e-09	 -1.470504e-11
0	 0	 -2.160738e-10
4.031333e-11	 -1.105923e-09	 -2.317272e-16
0	 0	 2.160743e-10
0	 0	 -2.079624e-11
-2.000419e-10	 2.916940e-09	 1.938253e-16
0	 0	 2.079601e-11
2.850562e-11	 -7.820074e-10	 1.527874e-10
-1.414511e-10	 2.062587e-09	 1.470512e-11
-2.435116e-10	 -7.338305e-10	 -1.322802e-10
0	 0	 -1.870724e-10
0	 0	 1.870727e-10
-8.463860e-11	 2.076223e-09	 3.718146e-11
-8.463905e-11	 2.076221e-09	 -3.718138e-11
0	 0	 5.258241e-11
0	 0	 -5.258253e-11
-2.435119e-10	 -7.338334e-10	 1.322803e-10
-1.196974e-10	 2.936221e-09	 1.366983e-16
-3.443776e-10	 -1.037795e-09	 -1.435768e-16
-3.262674e-11	 2.925406e-09	 7.956029e-17
0	 0	 -1.579922e-10
-7.314802e-10	 -9.643147e-10	 -5.535276e-17
0	 0	 1.579924e-10
0	 0	 1.255850e-10
0	 0	 -1.255850e-10
-5.172348e-10	 -6.818749e-10	 1.117174e-10
-5.172344e-10	 -6.818720e-10	 -1.117174e-10
-2.307027e-11	 2.068575e-09	 8.880205e-11
-2.307090e-11	 2.068573e-09	 -8.880198e-11
0	 0	 -4.421741e-11
1.063121e-10	 7.078113e-10	 -3.937113e-11
1.997852e-10	 1.291572e-09	 -3.126658e-11
2.566601e-10	 1.708806e-09	 -1.630825e-11
2.825387e-10	 1.826556e-09	 -2.063475e-16
2.566599e-10	 1.708804e-09	 1.630798e-11
1.997849e-10	 1.291569e-09	 3.126659e-11
1.063119e-10	 7.078093e-10	 3.937142e-11
0	 0	 4.421785e-11
0	 0	 -6.731186e-11
8.765468e-11	 1.834140e-09	 -1.654325e-16
0	 0	 6.731222e-11
6.198105e-11	 1.296931e-09	 4.759680e-11
6.198139e-11	 1.296934e-09	 -4.759679e-11
-7.332365e-11	 1.298292e-09	 -6.356787e-11
-9.351875e-11	 1.714443e-09	 -3.481799e-11
0	 0	 -8.989842e-11
-3.873666e-11	 7.101461e-10	 -8.405776e-11
-9.351902e-11	 1.714441e-09	 3.481782e-11
-3.873692e-11	 7.101441e-10	 8.405796e-11
0	 0	 8.989869e-11
-1.036956e-10	 1.836061e-09	 -1.247337e-16
-7.332403e-11	 1.298290e-09	 6.356788e-11
-2.945904e-10	 1.836885e-09	 -8.395626e-17
-2.083071e-10	 1.298873e-09	 7.960211e-11
0	 0	 -1.125743e-10
-2.083067e-10	 1.298875e-09	 -7.960210e-11
0	 0	 1.125745e-10
0	 0	 -1.357013e-10
-1.829832e-10	 7.067881e-10	 -1.289028e-10
-4.417608e-10	 1.706336e-09	 -5.339335e-11
-4.877645e-10	 1.830591e-09	 -4.286335e-17
-4.417611e-10	 1.706334e-09	 5.339327e-11
-3.449018e-10	 1.294422e-09	 9.595533e-11
-1.829835e-10	 7.067861e-10	 1.289029e-10
0	 0	 1.357014e-10
-3.449013e-10	 1.294425e-09	 -9.595531e-11
-3.448569e-10	 1.294356e-09	 9.596408e-11
0	 0	 1.357136e-10
-1.829592e-10	 7.067507e-10	 1.289145e-10
-4.417028e-10	 1.706246e-09	 5.339821e-11
-4.877016e-10	 1.830493e-09	 9.303536e-17
-4.417031e-10	 1.706243e-09	 -5.339803e-11
-3.448574e-10	 1.294353e-09	 -9.596400e-11
-1.829595e-10	 7.067485e-10	 -1.289145e-10
0	 0	 -1.357137e-10
0	 0	 1.125880e-10
-2.082638e-10	 1.298806e-09	 7.961181e-11
0	 0	 -1.125881e-10
-2.945299e-10	 1.836788e-09	 1.383435e-16
-2.082643e-10	 1.298803e-09	 -7.961173e-11
-1.036373e-10	 1.835964e-09	 1.832882e-16
-7.328281e-11	 1.298221e-09	 -6.357845e-11
0	 0	 8.991345e-11
-3.871441e-11	 7.101087e-10	 8.407170e-11
-9.346531e-11	 1.714350e-09	 -3.482352e-11
-3.871468e-11	 7.101065e-10	 -8.407183e-11
0	 0	 -8.991366e-11
-7.328242e-11	 1.298224e-09	 6.357853e-11
-9.346504e-11	 1.714353e-09	 3.482381e-11
6.202100e-11	 1.296865e-09	 4.760839e-11
6.202065e-11	 1.296863e-09	 -4.760831e-11
0	 0	 6.732823e-11
8.771069e-11	 1.834043e-09	 2.281466e-16
0	 0	 -6.732852e-11
0	 0	 4.423511e-11
1.063326e-10	 7.077740e-10	 3.938737e-11
1.998232e-10	 1.291503e-09	 3.127912e-11
2.567095e-10	 1.708716e-09	 1.631502e-11
2.825924e-10	 1.826459e-09	 2.732625e-16
2.567093e-10	 1.708714e-09	 -1.631464e-11
1.998229e-10	 1.291500e-09	 -3.127904e-11
1.063324e-10	 7.077718e-10	 -3.938759e-11
0	 0	 -4.423549e-11
-2.311442e-11	 2.068662e-09	 -8.879015e-11
-2.311502e-11	 2.068660e-09	 8.879016e-11
-5.171871e-10	 -6.819165e-10	 1.117220e-10
-5.171875e-10	 -6.819196e-10	 -1.117220e-10
0	 0	 -1.255682e-10
0	 0	 1.255683e-10
0	 0	 1.579987e-10
-7.314133e-10	 -9.643778e-10	 1.054471e-16
0	 0	 -1.579988e-10
-3.268915e-11	 2.925529e-09	 -2.948479e-17
-3.443160e-10	 -1.037857e-09	 2.002368e-16
-1.197572e-10	 2.936344e-09	 -8.012521e-17
-2.434684e-10	 -7.338774e-10	 -1.322858e-10
0	 0	 -5.256198e-11
0	 0	 5.256217e-11
-8.468088e-11	 2.076310e-09	 -3.716700e-11
-8.468131e-11	 2.076308e-09	 3.716701e-11
0	 0	 1.870802e-10
0	 0	 -1.870805e-10
-2.434680e-10	 -7.338742e-10	 1.322858e-10
-1.414915e-10	 2.062675e-09	 -1.472205e-11
2.854549e-11	 -7.820507e-10	 -1.527939e-10
0	 0	 2.082027e-11
-2.000990e-10	 2.917064e-09	 -1.307468e-16
0	 0	 -2.081998e-11
0	 0	 2.160830e-10
4.036974e-11	 -1.105984e-09	 2.949575e-16
0	 0	 -2.160834e-10
-1.414912e-10	 2.062677e-09	 1.472206e-11
2.854594e-11	 -7.820475e-10	 1.527939e-10
7.340591e-10	 6.644854e-10	 -1.264733e-10
7.340581e-10	 6.644849e-10	 1.264733e-10
3.914395e-10	 3.610565e-10	 -1.671375e-10
1.038116e-09	 9.397239e-10	 6.258112e-18
-4.971948e-10	 -1.307260e-09	 1.577705e-10
-9.166527e-10	 -2.395302e-09	 1.214905e-10
-9.166527e-10	 -2.395305e-09	 -1.214904e-10
-4.971948e-10	 -1.307261e-09	 -1.577705e-10
9.450179e-10	 8.716672e-10	 -6.923062e-11
9.450172e-10	 8.716668e-10	 6.923063e-11
3.914387e-10	 3.610561e-10	 1.671375e-10
0	 0	 -1.788602e-10
0	 0	 1.788603e-10
-1.296343e-09	 -3.387471e-09	 8.184476e-17
0	 0	 1.718134e-10
-1.200334e-09	 -3.156007e-09	 -6.535061e-11
0	 0	 -1.718134e-10
-1.200334e-09	 -3.156005e-09	 6.535077e-11
5.721422e-10	 6.028368e-10	 -1.220512e-10
-8.337861e-10	 -2.431037e-09	 1.551609e-10
0	 0	 2.194306e-10
0	 0	 -2.194306e-10
8.091305e-10	 8.525397e-10	 4.816361e-18
0	 0	 -1.726064e-10
0	 0	 1.726064e-10
5.721412e-10	 6.028364e-10	 1.220512e-10
-8.337862e-10	 -2.431039e-09	 -1.551608e-10
-1.179152e-09	 -3.438006e-09	 1.156576e-16
-4.100330e-10	 -1.343368e-09	 -2.452115e-10
4.128015e-10	 5.400474e-10	 -1.177564e-10
5.330333e-10	 7.136299e-10	 6.414820e-11
-7.494450e-10	 -2.461008e-09	 1.884243e-10
-9.899070e-10	 -3.243177e-09	 -1.015698e-10
-9.899069e-10	 -3.243175e-09	 1.015700e-10
0	 0	 -1.665327e-10
2.207901e-10	 2.955954e-10	 -1.548674e-10
5.837888e-10	 7.637421e-10	 3.371246e-18
0	 0	 1.665327e-10
-1.059875e-09	 -3.480392e-09	 1.492253e-16
0	 0	 2.664721e-10
-4.100328e-10	 -1.343367e-09	 2.452115e-10
0	 0	 -2.664723e-10
5.330339e-10	 7.136302e-10	 -6.414819e-11
2.207895e-10	 2.955951e-10	 1.548675e-10
4.128006e-10	 5.400470e-10	 1.177564e-10
-7.494451e-10	 -2.461010e-09	 -1.884243e-10
0	 0	 -1.605191e-10
2.528141e-10	 4.771856e-10	 -1.135041e-10
2.528134e-10	 4.771852e-10	 1.135042e-10
0	 0	 1.605191e-10
0	 0	 3.134458e-10
-6.648958e-10	 -2.490638e-09	 -2.216397e-10
0	 0	 -3.134460e-10
-6.648957e-10	 -2.490636e-09	 2.216397e-10
3.575326e-10	 6.748420e-10	 1.951750e-18
-9.403046e-10	 -3.522292e-09	 1.827294e-16
4.963077e-11	 2.279989e-10	 -1.427112e-10
-3.201686e-10	 -1.373878e-09	 3.324299e-10
-5.772446e-10	 -2.516509e-09	 -2.552483e-10
-3.201689e-10	 -1.373879e-09	 -3.324300e-10
0	 0	 -1.543104e-10
9.045705e-11	 4.117408e-10	 -1.091139e-10
1.279251e-10	 5.822892e-10	 5.471803e-19
1.198185e-10	 5.504375e-10	 5.911293e-11
9.045637e-11	 4.117405e-10	 1.091139e-10
4.963030e-11	 2.279986e-10	 1.427112e-10
0	 0	 1.543104e-10
0	 0	 3.609756e-10
-5.772444e-10	 -2.516506e-09	 2.552484e-10
-8.163470e-10	 -3.558879e-09	 2.163812e-16
-7.729559e-10	 -3.316837e-09	 -1.376968e-10
0	 0	 -3.609759e-10
1.198189e-10	 5.504377e-10	 -5.911292e-11
-7.729557e-10	 -3.316835e-09	 1.376971e-10
0	 0	 -2.408763e-10
2.254446e-09	 -1.942947e-09	 4.397605e-17
1.594133e-09	 -1.373871e-09	 1.703253e-10
0	 0	 2.408763e-10
0	 0	 1.530830e-10
-9.350041e-10	 -3.800834e-09	 5.322582e-17