# vtk DataFile Version 3.0
Unstructured Grid Example
ASCII
DATASET UNSTRUCTURED_GRID
POINTS 832 float
-1	 0	 0
-1	 0	 3.750000e-01
-1	 0	 7.500000e-01
-1	 0	 1.125000e+00
-1	 0	 1.500000e+00
-1	 0	 1.875000e+00
-1	 0	 2.250000e+00
-1	 0	 2.625000e+00
-1	 0	 3
-9.875000e-01	 0	 0
-9.875000e-01	 0	 1.500000e+00
-9.875000e-01	 0	 3
-9.875000e-01	 0	 2.250000e+00
-9.875000e-01	 0	 7.500000e-01
-9.833054e-01	 -1.819631e-01	 7.500000e-01
-9.833054e-01	 -1.819631e-01	 0
-9.833054e-01	 -1.819631e-01	 1.500000e+00
-9.833054e-01	 -1.819631e-01	 3.000000e+00
-9.833054e-01	 1.819631e-01	 2.250000e+00
-9.833054e-01	 1.819631e-01	 0
-9.833054e-01	 1.819631e-01	 1.500000e+00
-9.833054e-01	 1.819631e-01	 3.000000e+00
-9.833054e-01	 1.819631e-01	 7.500000e-01
-9.833054e-01	 -1.819631e-01	 2.250000e+00
-9.750000e-01	 0	 7.500000e-01
-9.750000e-01	 0	 1.125000e+00
-9.750000e-01	 0	 0
-9.750000e-01	 0	 3.750000e-01
-9.750000e-01	 0	 1.875000e+00
-9.750000e-01	 0	 2.625000e+00
-9.750000e-01	 0	 3
-9.750000e-01	 0	 1.500000e+00
-9.750000e-01	 0	 2.250000e+00
-9.625000e-01	 0	 1.500000e+00
-9.625000e-01	 0	 2.250000e+00
-9.625000e-01	 0	 0
-9.625000e-01	 0	 7.500000e-01
-9.625000e-01	 0	 3
-9.587227e-01	 -1.774140e-01	 0
-9.587227e-01	 -1.774140e-01	 3.000000e+00
-9.587227e-01	 -1.774140e-01	 1.500000e+00
-9.587227e-01	 1.774140e-01	 0
-9.587227e-01	 1.774140e-01	 3.000000e+00
-9.587227e-01	 1.774140e-01	 1.500000e+00
-9.587227e-01	 1.774140e-01	 7.500000e-01
-9.587227e-01	 -1.774140e-01	 7.500000e-01
-9.587227e-01	 -1.774140e-01	 2.250000e+00
-9.587227e-01	 1.774140e-01	 2.250000e+00
-9.500000e-01	 0	 0
-9.500000e-01	 0	 3.750000e-01
-9.500000e-01	 0	 1.125000e+00
-9.500000e-01	 0	 1.500000e+00
-9.500000e-01	 0	 1.875000e+00
-9.500000e-01	 0	 2.250000e+00
-9.500000e-01	 0	 2.625000e+00
-9.500000e-01	 0	 3
-9.500000e-01	 0	 7.500000e-01
-9.341401e-01	 -1.728649e-01	 1.500000e+00
-9.341401e-01	 -1.728649e-01	 0
-9.341401e-01	 -1.728649e-01	 3.000000e+00
-9.341401e-01	 1.728649e-01	 2.250000e+00
-9.341401e-01	 1.728649e-01	 0
-9.341401e-01	 1.728649e-01	 1.500000e+00
-9.341401e-01	 1.728649e-01	 3.000000e+00
-9.341401e-01	 -1.728649e-01	 7.500000e-01
-9.341401e-01	 -1.728649e-01	 2.250000e+00
-9.341401e-01	 1.728649e-01	 7.500000e-01
-9.297883e-01	 -3.680947e-01	 1.125000e+00
-9.297883e-01	 -3.680947e-01	 0
-9.297883e-01	 -3.680947e-01	 7.500000e-01
-9.297883e-01	 -3.680947e-01	 1.500000e+00
-9.297883e-01	 -3.680947e-01	 1.875000e+00
-9.297883e-01	 -3.680947e-01	 2.250000e+00
-9.297883e-01	 -3.680947e-01	 2.625000e+00
-9.297883e-01	 -3.680947e-01	 3.000000e+00
-9.297883e-01	 -3.680947e-01	 3.750000e-01
-9.297883e-01	 3.680947e-01	 3.750000e-01
-9.297883e-01	 3.680947e-01	 2.250000e+00
-9.297883e-01	 3.680947e-01	 2.625000e+00
-9.297883e-01	 3.680947e-01	 0
-9.297883e-01	 3.680947e-01	 7.500000e-01
-9.297883e-01	 3.680947e-01	 1.500000e+00
-9.297883e-01	 3.680947e-01	 1.875000e+00
-9.297883e-01	 3.680947e-01	 3.000000e+00
-9.297883e-01	 3.680947e-01	 1.125000e+00
-9.181659e-01	 3.634935e-01	 7.500000e-01
-9.181659e-01	 -3.634935e-01	 0
-9.181659e-01	 -3.634935e-01	 7.500000e-01
-9.181659e-01	 -3.634935e-01	 2.250000e+00
-9.181659e-01	 -3.634935e-01	 3
-9.181659e-01	 3.634935e-01	 0
-9.181659e-01	 3.634935e-01	 2.250000e+00
-9.181659e-01	 3.634935e-01	 3
-9.181659e-01	 -3.634935e-01	 1.500000e+00
-9.181659e-01	 3.634935e-01	 1.500000e+00
-9.065436e-01	 -3.588923e-01	 1.125000e+00
-9.065436e-01	 -3.588923e-01	 2.625000e+00
-9.065436e-01	 -3.588923e-01	 0
-9.065436e-01	 -3.588923e-01	 3.750000e-01
-9.065436e-01	 -3.588923e-01	 1.500000e+00
-9.065436e-01	 -3.588923e-01	 3
-9.065436e-01	 3.588923e-01	 2.625000e+00
-9.065436e-01	 3.588923e-01	 1.125000e+00
-9.065436e-01	 3.588923e-01	 0
-9.065436e-01	 3.588923e-01	 3.750000e-01
-9.065436e-01	 3.588923e-01	 3
-9.065436e-01	 -3.588923e-01	 7.500000e-01
-9.065436e-01	 -3.588923e-01	 1.875000e+00
-9.065436e-01	 3.588923e-01	 1.875000e+00
-9.065436e-01	 3.588923e-01	 1.500000e+00
-9.065436e-01	 -3.588923e-01	 2.250000e+00
-9.065436e-01	 3.588923e-01	 7.500000e-01
-9.065436e-01	 3.588923e-01	 2.250000e+00
-8.949212e-01	 3.542912e-01	 1.500000e+00
-8.949212e-01	 -3.542912e-01	 1.500000e+00
-8.949212e-01	 -3.542912e-01	 0
-8.949212e-01	 -3.542912e-01	 3.000000e+00
-8.949212e-01	 3.542912e-01	 0
-8.949212e-01	 3.542912e-01	 3.000000e+00
-8.949212e-01	 -3.542912e-01	 2.250000e+00
-8.949212e-01	 -3.542912e-01	 7.500000e-01
-8.949212e-01	 3.542912e-01	 2.250000e+00
-8.949212e-01	 3.542912e-01	 7.500000e-01
-8.832989e-01	 -3.496900e-01	 1.125000e+00
-8.832989e-01	 -3.496900e-01	 1.875000e+00
-8.832989e-01	 -3.496900e-01	 2.625000e+00
-8.832989e-01	 -3.496900e-01	 2.250000e+00
-8.832989e-01	 3.496900e-01	 1.125000e+00
-8.832989e-01	 -3.496900e-01	 0
-8.832989e-01	 -3.496900e-01	 3.000000e+00
-8.832989e-01	 -3.496900e-01	 3.750000e-01
-8.832989e-01	 -3.496900e-01	 7.500000e-01
-8.832989e-01	 3.496900e-01	 3.750000e-01
-8.832989e-01	 3.496900e-01	 7.500000e-01
-8.832989e-01	 3.496900e-01	 2.250000e+00
-8.832989e-01	 3.496900e-01	 2.625000e+00
-8.832989e-01	 3.496900e-01	 0
-8.832989e-01	 3.496900e-01	 1.875000e+00
-8.832989e-01	 3.496900e-01	 3.000000e+00
-8.832989e-01	 -3.496900e-01	 1.500000e+00
-8.832989e-01	 3.496900e-01	 1.500000e+00
-8.369955e-01	 -5.472098e-01	 0
-8.369955e-01	 -5.472098e-01	 7.500000e-01
-8.369955e-01	 -5.472098e-01	 1.500000e+00
-8.369955e-01	 -5.472098e-01	 2.250000e+00
-8.369955e-01	 -5.472098e-01	 3
-8.369955e-01	 5.472098e-01	 0
-8.369955e-01	 5.472098e-01	 7.500000e-01
-8.369955e-01	 5.472098e-01	 1.500000e+00
-8.369955e-01	 5.472098e-01	 2.250000e+00
-8.369955e-01	 5.472098e-01	 3
-8.160706e-01	 -5.335295e-01	 7.500000e-01
-8.160706e-01	 5.335295e-01	 7.500000e-01
-8.160706e-01	 -5.335295e-01	 1.500000e+00
-8.160706e-01	 -5.335295e-01	 2.250000e+00
-8.160706e-01	 5.335295e-01	 1.500000e+00
-8.160706e-01	 5.335295e-01	 2.250000e+00
-8.160706e-01	 -5.335295e-01	 0
-8.160706e-01	 -5.335295e-01	 3.000000e+00
-8.160706e-01	 5.335295e-01	 0
-8.160706e-01	 5.335295e-01	 3.000000e+00
-7.951457e-01	 -5.198493e-01	 7.500000e-01
-7.951457e-01	 5.198493e-01	 7.500000e-01
-7.951457e-01	 -5.198493e-01	 0
-7.951457e-01	 -5.198493e-01	 1.500000e+00
-7.951457e-01	 -5.198493e-01	 2.250000e+00
-7.951457e-01	 -5.198493e-01	 3
-7.951457e-01	 5.198493e-01	 0
-7.951457e-01	 5.198493e-01	 1.500000e+00
-7.951457e-01	 5.198493e-01	 2.250000e+00
-7.951457e-01	 5.198493e-01	 3
-7.071068e-01	 -7.071068e-01	 0
-7.071068e-01	 -7.071068e-01	 3.750000e-01
-7.071068e-01	 -7.071068e-01	 7.500000e-01
-7.071068e-01	 -7.071068e-01	 1.125000e+00
-7.071068e-01	 -7.071068e-01	 1.500000e+00
-7.071068e-01	 -7.071068e-01	 1.875000e+00
-7.071068e-01	 -7.071068e-01	 2.250000e+00
-7.071068e-01	 -7.071068e-01	 2.625000e+00
-7.071068e-01	 -7.071068e-01	 3.000000e+00
-7.071068e-01	 7.071068e-01	 0
-7.071068e-01	 7.071068e-01	 3.750000e-01
-7.071068e-01	 7.071068e-01	 7.500000e-01
-7.071068e-01	 7.071068e-01	 1.125000e+00
-7.071068e-01	 7.071068e-01	 1.500000e+00
-7.071068e-01	 7.071068e-01	 1.875000e+00
-7.071068e-01	 7.071068e-01	 2.250000e+00
-7.071068e-01	 7.071068e-01	 2.625000e+00
-7.071068e-01	 7.071068e-01	 3.000000e+00
-6.982679e-01	 -6.982679e-01	 7.500000e-01
-6.982679e-01	 6.982679e-01	 7.500000e-01
-6.982679e-01	 -6.982679e-01	 0
-6.982679e-01	 -6.982679e-01	 2.250000e+00
-6.982679e-01	 -6.982679e-01	 3.000000e+00
-6.982679e-01	 6.982679e-01	 0
-6.982679e-01	 6.982679e-01	 2.250000e+00
-6.982679e-01	 6.982679e-01	 3.000000e+00
-6.982679e-01	 -6.982679e-01	 1.500000e+00
-6.982679e-01	 6.982679e-01	 1.500000e+00
-6.894291e-01	 -6.894291e-01	 3.750000e-01
-6.894291e-01	 -6.894291e-01	 2.625000e+00
-6.894291e-01	 -6.894291e-01	 0
-6.894291e-01	 -6.894291e-01	 1.500000e+00
-6.894291e-01	 -6.894291e-01	 2.250000e+00
-6.894291e-01	 -6.894291e-01	 3.000000e+00
-6.894291e-01	 6.894291e-01	 3.750000e-01
-6.894291e-01	 6.894291e-01	 2.625000e+00
-6.894291e-01	 -6.894291e-01	 1.875000e+00
-6.894291e-01	 6.894291e-01	 1.875000e+00
-6.894291e-01	 -6.894291e-01	 7.500000e-01
-6.894291e-01	 -6.894291e-01	 1.125000e+00
-6.894291e-01	 6.894291e-01	 0
-6.894291e-01	 6.894291e-01	 1.500000e+00
-6.894291e-01	 6.894291e-01	 2.250000e+00
-6.894291e-01	 6.894291e-01	 3.000000e+00
-6.894291e-01	 6.894291e-01	 7.500000e-01
-6.894291e-01	 6.894291e-01	 1.125000e+00
-6.805903e-01	 6.805903e-01	 7.500000e-01
-6.805903e-01	 -6.805903e-01	 7.500000e-01
-6.805903e-01	 -6.805903e-01	 0
-6.805903e-01	 -6.805903e-01	 1.500000e+00
-6.805903e-01	 -6.805903e-01	 3.000000e+00
-6.805903e-01	 6.805903e-01	 0
-6.805903e-01	 6.805903e-01	 1.500000e+00
-6.805903e-01	 6.805903e-01	 3.000000e+00
-6.805903e-01	 6.805903e-01	 2.250000e+00
-6.805903e-01	 -6.805903e-01	 2.250000e+00
-6.717514e-01	 -6.717514e-01	 2.625000e+00
-6.717514e-01	 6.717514e-01	 2.625000e+00
-6.717514e-01	 -6.717514e-01	 0
-6.717514e-01	 -6.717514e-01	 3.750000e-01
-6.717514e-01	 -6.717514e-01	 7.500000e-01
-6.717514e-01	 -6.717514e-01	 1.125000e+00
-6.717514e-01	 -6.717514e-01	 1.875000e+00
-6.717514e-01	 -6.717514e-01	 3.000000e+00
-6.717514e-01	 -6.717514e-01	 2.250000e+00
-6.717514e-01	 6.717514e-01	 1.500000e+00
-6.717514e-01	 6.717514e-01	 0
-6.717514e-01	 6.717514e-01	 3.750000e-01
-6.717514e-01	 6.717514e-01	 7.500000e-01
-6.717514e-01	 6.717514e-01	 1.125000e+00
-6.717514e-01	 6.717514e-01	 1.875000e+00
-6.717514e-01	 6.717514e-01	 3.000000e+00
-6.717514e-01	 -6.717514e-01	 1.500000e+00
-6.717514e-01	 6.717514e-01	 2.250000e+00
-5.472098e-01	 -8.369955e-01	 0
-5.472098e-01	 -8.369955e-01	 7.500000e-01
-5.472098e-01	 -8.369955e-01	 1.500000e+00
-5.472098e-01	 -8.369955e-01	 2.250000e+00
-5.472098e-01	 -8.369955e-01	 3
-5.472098e-01	 8.369955e-01	 0
-5.472098e-01	 8.369955e-01	 7.500000e-01
-5.472098e-01	 8.369955e-01	 1.500000e+00
-5.472098e-01	 8.369955e-01	 2.250000e+00
-5.472098e-01	 8.369955e-01	 3
-5.335295e-01	 -8.160706e-01	 1.500000e+00
-5.335295e-01	 -8.160706e-01	 2.250000e+00
-5.335295e-01	 8.160706e-01	 0
-5.335295e-01	 8.160706e-01	 3.000000e+00
[...]
POINT_DATA 832
VECTORS displacement float
0	 0	 -5.788480e-14
-3.088865e-13	 8.195334e-18	 -3.918137e-14
-4.179509e-13	 1.428740e-17	 -4.126651e-17
-3.088952e-13	 1.718327e-17	 3.909927e-14
-1.601656e-17	 1.660598e-17	 5.780373e-14
3.088654e-13	 1.350340e-17	 3.910193e-14
4.179283e-13	 9.196973e-18	 -3.628846e-17
3.088741e-13	 4.515474e-18	 -3.917494e-14
0	 0	 -5.787776e-14
0	 0	 -4.603099e-14
-1.603839e-17	 1.434022e-17	 4.595015e-14
0	 0	 -4.602441e-14
4.199873e-13	 6.749859e-18	 -3.644936e-17
-4.200100e-13	 1.353024e-17	 -4.110566e-17
-3.334964e-13	 -1.924429e-14	 -4.215846e-17
0	 0	 -4.641661e-14
-4.240998e-17	 1.280019e-17	 4.633443e-14
0	 0	 -4.640631e-14
3.334912e-13	 -1.925240e-14	 -3.772908e-17
0	 0	 -4.641605e-14
8.582465e-18	 1.263905e-17	 4.633658e-14
0	 0	 -4.641272e-14
-3.334791e-13	 1.927027e-14	 -4.008058e-17
3.334365e-13	 1.926239e-14	 -3.487065e-17
-4.212537e-13	 1.277954e-17	 -4.094413e-17
-3.099342e-13	 1.416334e-17	 2.358810e-14
0	 0	 -3.430490e-14
-3.099255e-13	 7.585191e-18	 -2.366968e-14
3.099043e-13	 8.295802e-18	 2.359046e-14
3.099131e-13	 1.717658e-18	 -2.366399e-14
0	 0	 -3.429877e-14
-1.606679e-17	 1.210414e-17	 3.422428e-14
4.212309e-13	 4.338254e-18	 -3.661089e-17
-1.609166e-17	 9.876808e-18	 2.247734e-14
4.223715e-13	 1.935452e-18	 -3.677260e-17
0	 0	 -2.255773e-14
-4.223943e-13	 1.203241e-17	 -4.078244e-17
0	 0	 -2.255206e-14
0	 0	 -2.839048e-14
0	 0	 -2.838228e-14
-4.200956e-17	 1.026168e-17	 2.830935e-14
0	 0	 -2.839007e-14
0	 0	 -2.838648e-14
8.184904e-18	 1.046993e-17	 2.831046e-14
-3.391945e-13	 -7.900121e-15	 -4.017400e-17
-3.392115e-13	 7.924383e-15	 -4.141339e-17
3.391521e-13	 -7.909870e-15	 -3.561530e-17
3.392061e-13	 7.914928e-15	 -3.763558e-17
0	 0	 -1.066676e-14
-3.094063e-13	 6.979772e-18	 -8.098992e-15
-3.094151e-13	 1.116116e-17	 8.017944e-15
-1.612672e-17	 7.627563e-18	 1.058660e-14
3.093850e-13	 3.114909e-18	 8.019990e-15
4.225524e-13	 -4.946568e-19	 -3.693407e-17
3.093938e-13	 -1.066474e-18	 -8.094053e-15
0	 0	 -1.066155e-14
-4.225752e-13	 1.128160e-17	 -4.062101e-17
-4.144837e-17	 7.736821e-18	 1.031077e-14
0	 0	 -1.039084e-14
0	 0	 -1.038475e-14
3.430809e-13	 3.578700e-14	 -3.754348e-17
0	 0	 -1.039059e-14
7.623248e-18	 8.319294e-18	 1.031086e-14
0	 0	 -1.038674e-14
-3.430867e-13	 3.579778e-14	 -4.066854e-17
3.430281e-13	 -3.578684e-14	 -3.635972e-17
-3.430701e-13	 -3.577523e-14	 -4.026602e-17
-2.872010e-14	 3.812593e-14	 1.567682e-15
0	 0	 -3.147396e-15
-3.925373e-14	 5.417042e-14	 -4.173190e-17
-5.130074e-17	 7.845564e-18	 3.066062e-15
2.862460e-14	 -3.811183e-14	 1.571588e-15
3.918118e-14	 -5.415933e-14	 -3.446145e-17
2.865257e-14	 -3.811596e-14	 -1.641113e-15
0	 0	 -3.137114e-15
-2.869213e-14	 3.812180e-14	 -1.650544e-15
-2.868182e-14	 -3.810774e-14	 -1.649490e-15
3.924950e-14	 5.415998e-14	 -3.834745e-17
2.869367e-14	 3.811432e-14	 -1.648076e-15
0	 0	 -3.146959e-15
-3.922789e-14	 -5.414783e-14	 -3.942576e-17
1.528143e-17	 8.590439e-18	 3.068423e-15
2.870205e-14	 3.811897e-14	 1.571302e-15
0	 0	 -3.145434e-15
-2.867345e-14	 -3.810308e-14	 1.570717e-15
-4.783574e-14	 -7.605513e-14	 -3.952879e-17
0	 0	 -2.547027e-15
-4.786152e-14	 7.607757e-14	 -4.130644e-17
4.778881e-14	 -7.606652e-14	 -3.488717e-17
0	 0	 -2.537949e-15
0	 0	 -2.546696e-15
4.785745e-14	 7.606739e-14	 -3.824444e-17
0	 0	 -2.544880e-15
-5.141661e-17	 7.818748e-18	 2.466295e-15
1.535060e-17	 8.666280e-18	 2.468015e-15
-4.051930e-14	 6.801022e-14	 1.046493e-15
4.045156e-14	 -6.800022e-14	 -1.120555e-15
0	 0	 -1.941962e-15
-4.049124e-14	 6.800608e-14	 -1.127834e-15
-5.147974e-17	 7.816896e-18	 1.861826e-15
0	 0	 -1.934078e-15
4.049291e-14	 6.799887e-14	 -1.125280e-15
-4.047259e-14	 -6.798749e-14	 1.048079e-15
0	 0	 -1.941737e-15
-4.048101e-14	 -6.799221e-14	 -1.127233e-15
0	 0	 -1.939635e-15
-5.640002e-14	 9.775600e-14	 -4.088432e-17
4.042350e-14	 -6.799608e-14	 1.049508e-15
4.050133e-14	 6.800358e-14	 1.048888e-15
1.538531e-17	 8.735059e-18	 1.862913e-15
5.632722e-14	 -9.774494e-14	 -3.530953e-17
-5.637431e-14	 -9.773370e-14	 -3.962995e-17
5.639607e-14	 9.774605e-14	 -3.814326e-17
1.542064e-17	 8.808075e-18	 1.247592e-15
-5.153290e-17	 7.808679e-18	 1.247140e-15
0	 0	 -1.326678e-15
0	 0	 -1.319990e-15
0	 0	 -1.326559e-15
0	 0	 -1.324170e-15
6.479058e-14	 -1.191947e-13	 -3.573261e-17
-6.486346e-14	 1.192057e-13	 -4.046149e-17
6.485963e-14	 1.191960e-13	 -3.804188e-17
-6.483783e-14	 -1.191836e-13	 -3.973131e-17
-5.227182e-14	 9.771266e-14	 5.087727e-16
5.217601e-14	 -9.769838e-14	 5.108940e-16
5.220407e-14	 -9.770257e-14	 -5.834670e-16
7.338622e-14	 -1.409227e-13	 -3.615941e-17
-5.222519e-14	 -9.769002e-14	 5.089044e-16
0	 0	 -7.109500e-16
0	 0	 -7.054691e-16
-5.224376e-14	 9.770848e-14	 -5.885883e-16
-7.345908e-14	 1.409338e-13	 -4.003496e-17
-5.223361e-14	 -9.769480e-14	 -5.884399e-16
-7.343354e-14	 -1.409118e-13	 -3.983435e-17
7.345536e-14	 1.409244e-13	 -3.793885e-17
5.224551e-14	 9.770157e-14	 -5.859476e-16
0	 0	 -7.109370e-16
5.225393e-14	 9.770635e-14	 5.099367e-16
0	 0	 -7.082563e-16
-5.151943e-17	 7.830815e-18	 6.320152e-16
1.542441e-17	 8.902736e-18	 6.318234e-16
0	 0	 4.243192e-14
2.290904e-13	 2.046258e-13	 -3.985407e-17
-3.965865e-17	 1.114882e-17	 -4.251027e-14
-2.291465e-13	 -2.046100e-13	 -3.520082e-17
0	 0	 4.243850e-14
0	 0	 4.243105e-14
2.291138e-13	 -2.046024e-13	 -3.916366e-17
1.195179e-17	 1.004962e-17	 -4.250910e-14
-2.290969e-13	 2.046166e-13	 -3.823911e-17
0	 0	 4.243235e-14
2.148946e-13	 2.271545e-13	 -3.935124e-17
2.149183e-13	 -2.271305e-13	 -3.925150e-17
-4.122884e-17	 1.346018e-17	 -2.605538e-14
-2.149529e-13	 -2.271354e-13	 -3.570337e-17
1.225497e-17	 1.055483e-17	 -2.605512e-14
-2.149010e-13	 2.271454e-13	 -3.815112e-17
0	 0	 2.597775e-14
0	 0	 2.598290e-14
0	 0	 2.597693e-14
0	 0	 2.597849e-14
1.990259e-13	 2.489656e-13	 -3.884926e-17
1.990499e-13	 -2.489410e-13	 -3.933889e-17
0	 0	 9.529716e-15
-4.268920e-17	 1.587972e-17	 -9.606640e-15
-1.990863e-13	 -2.489432e-13	 -3.620505e-17
0	 0	 9.533455e-15
0	 0	 9.528972e-15
1.256124e-17	 1.107138e-17	 -9.607276e-15
-1.990321e-13	 2.489567e-13	 -3.806358e-17
0	 0	 9.530776e-15
0	 0	 5.656440e-14
2.098164e-13	 2.098360e-13	 3.759619e-14
2.813135e-13	 2.813486e-13	 -3.666350e-17
2.098086e-13	 2.098523e-13	 -3.766956e-14
-1.447111e-17	 3.009553e-17	 -5.663782e-14
-2.098352e-13	 -2.097964e-13	 -3.766973e-14
-2.813340e-13	 -2.813060e-13	 -3.699113e-17
-2.098274e-13	 -2.098128e-13	 3.759578e-14
0	 0	 5.656394e-14
0	 0	 5.656141e-14
2.098247e-13	 -2.098203e-13	 3.759351e-14
2.813297e-13	 -2.813197e-13	 -3.898594e-17
2.098296e-13	 -2.098131e-13	 -3.767139e-14
8.914015e-18	 1.318650e-17	 -5.663901e-14
-2.098131e-13	 2.098376e-13	 -3.767069e-14
-2.813171e-13	 2.813383e-13	 -3.770270e-17
-2.098179e-13	 2.098304e-13	 3.759519e-14
0	 0	 5.656323e-14
2.826848e-13	 2.827221e-13	 -3.676847e-17
2.827015e-13	 -2.826927e-13	 -3.896283e-17
0	 0	 4.503624e-14
-2.827075e-13	 -2.826772e-13	 -3.688610e-17
0	 0	 4.503607e-14
0	 0	 4.503348e-14
-2.826887e-13	 2.827116e-13	 -3.772571e-17
0	 0	 4.503523e-14
-1.607933e-17	 3.176293e-17	 -4.510981e-14
9.010772e-18	 1.332251e-17	 -4.511105e-14
2.104899e-13	 2.105118e-13	 2.288019e-14
-2.105033e-13	 -2.104862e-13	 2.288031e-14
0	 0	 3.361357e-14
-1.767638e-17	 3.339094e-17	 -3.368729e-14
-2.835919e-13	 -2.835592e-13	 -3.678222e-17
0	 0	 3.361369e-14
2.104986e-13	 -2.104958e-13	 2.287777e-14
-2.104916e-13	 2.105061e-13	 2.287929e-14
-2.105128e-13	 -2.104681e-13	 -2.295388e-14
-2.104867e-13	 2.105134e-13	 -2.295490e-14
2.835669e-13	 2.836064e-13	 -3.687227e-17
2.104804e-13	 2.105300e-13	 -2.295393e-14
0	 0	 3.361104e-14
9.116835e-18	 1.343992e-17	 -3.368858e-14
-2.835711e-13	 2.835956e-13	 -3.774750e-17
0	 0	 3.361273e-14
2.835840e-13	 -2.835766e-13	 -3.894091e-17
2.105035e-13	 -2.104885e-13	 -2.295553e-14
2.844506e-13	 -2.844444e-13	 -3.891888e-17
2.844330e-13	 2.844747e-13	 -3.697626e-17
0	 0	 2.218789e-14
-1.926811e-17	 3.500787e-17	 -2.226175e-14
0	 0	 2.218831e-14
0	 0	 2.218560e-14
9.220288e-18	 1.355739e-17	 -2.226310e-14
0	 0	 2.218722e-14
-2.844375e-13	 2.844635e-13	 -3.776939e-17
-2.844602e-13	 -2.844252e-13	 -3.667816e-17
-2.102515e-13	 -2.102319e-13	 8.115701e-15
-2.102375e-13	 2.102541e-13	 8.114253e-15
0	 0	 1.063197e-14
2.102357e-13	 2.102600e-13	 8.115048e-15
2.847128e-13	 2.847568e-13	 -3.708143e-17
2.102245e-13	 2.102798e-13	 -8.189164e-15
-2.102627e-13	 -2.102121e-13	 -8.188894e-15
0	 0	 1.063268e-14
-2.847424e-13	 -2.847050e-13	 -3.657293e-17
9.346435e-18	 1.365878e-17	 -1.070738e-14
0	 0	 1.062991e-14
2.102447e-13	 -2.102436e-13	 8.112886e-15
2.847309e-13	 -2.847260e-13	 -3.889548e-17
2.102497e-13	 -2.102362e-13	 -8.190541e-15
-2.102325e-13	 2.102615e-13	 -8.189975e-15
0	 0	 1.063147e-14
-2.089390e-17	 3.662406e-17	 -1.070598e-14
-2.847177e-13	 2.847453e-13	 -3.779269e-17
0	 0	 4.244002e-14
2.046123e-13	 2.291566e-13	 -3.384096e-17
-2.598628e-18	 4.970729e-17	 -4.250899e-14
-2.046159e-13	 -2.290863e-13	 -3.823370e-17
0	 0	 4.243381e-14
0	 0	 4.243520e-14
2.046275e-13	 -2.291237e-13	 -3.854604e-17
1.198173e-17	 1.166019e-17	 -4.251187e-14
-2.046106e-13	 2.291402e-13	 -3.712008e-17
0	 0	 4.243721e-14
-3.122340e-18	 5.011648e-17	 -2.605403e-14
-2.271433e-13	 -2.148913e-13	 -3.749406e-17
0	 0	 2.597986e-14
0	 0	 2.598174e-14
1.109311e-17	 1.112271e-17	 -2.605646e-14
-2.271381e-13	 2.149452e-13	 -3.716870e-17
2.271388e-13	 2.149622e-13	 -3.458091e-17
0	 0	 2.598401e-14
0	 0	 2.597989e-14
2.271537e-13	 -2.149295e-13	 -3.849762e-17
2.489624e-13	 -1.990622e-13	 -3.844931e-17
2.489478e-13	 1.990947e-13	 -3.531914e-17
0	 0	 9.534151e-15
-3.805090e-18	 5.030486e-17	 -9.605210e-15
-2.489531e-13	 -1.990236e-13	 -3.675616e-17
0	 0	 9.532119e-15
0	 0	 9.530666e-15
1.024189e-17	 1.051802e-17	 -9.607204e-15
-2.489479e-13	 1.990771e-13	 -3.721722e-17
0	 0	 9.532408e-15
3.810647e-14	 -2.863116e-14	 1.573210e-15
3.813436e-14	 2.866655e-14	 1.569500e-15
0	 0	 -3.135406e-15
5.415398e-14	 -3.918395e-14	 -3.299756e-17
-1.181313e-17	 4.000174e-17	 3.068116e-15
-3.812797e-14	 2.870572e-14	 1.570826e-15
0	 0	 -3.141663e-15
0	 0	 -3.141120e-15
5.417522e-14	 3.920894e-14	 -3.776068e-17
1.871038e-17	 7.318352e-19	 3.065925e-15
-3.809984e-14	 -2.866534e-14	 1.570106e-15
-5.414876e-14	 -3.920790e-14	 -3.664781e-17
-3.810995e-14	 -2.866570e-14	 -1.643479e-15
0	 0	 -3.139546e-15
3.811277e-14	 -2.865300e-14	 -1.639559e-15
-5.417069e-14	 3.924052e-14	 -3.742166e-17
-3.812167e-14	 2.868388e-14	 -1.645315e-15
3.812425e-14	 2.866619e-14	 -1.644944e-15
-9.988398e-18	 3.940085e-17	 2.468502e-15
1.776335e-17	 3.544340e-19	 2.466356e-15
7.606221e-14	 -4.779199e-14	 -3.330628e-17
0	 0	 -2.536230e-15
-7.607633e-14	 4.784771e-14	 -3.711243e-17
0	 0	 -2.541612e-15
0	 0	 -2.541634e-15
7.608241e-14	 4.781662e-14	 -3.781943e-17
-7.605729e-14	 -4.781612e-14	 -3.658863e-17
0	 0	 -2.539893e-15
-9.775326e-14	 5.638560e-14	 -3.680667e-17
-9.773704e-14	 -5.635506e-14	 -3.652993e-17
6.801770e-14	 4.046521e-14	 1.048083e-15
-6.799567e-14	 -4.046529e-14	 -1.121977e-15
0	 0	 -1.932348e-15
6.799806e-14	 -4.045238e-14	 -1.118834e-15
0	 0	 -1.936867e-15
-8.204902e-18	 3.875317e-17	 1.864189e-15
0	 0	 -1.937444e-15
6.800857e-14	 4.046524e-14	 -1.123732e-15
1.683476e-17	 -8.059617e-21	 1.862083e-15
0	 0	 -1.935538e-15
6.799367e-14	 -4.043123e-14	 1.051362e-15
-6.800864e-14	 4.050345e-14	 1.049636e-15
9.774165e-14	 -5.633080e-14	 -3.361153e-17
9.776085e-14	 5.635505e-14	 -3.787766e-17
-6.798654e-14	 -4.046533e-14	 1.048810e-15
-6.800426e-14	 4.048230e-14	 -1.123001e-15
-6.432638e-18	 3.810287e-17	 1.249658e-15
-1.192015e-13	 6.484844e-14	 -3.650050e-17
-1.191881e-13	 -6.481896e-14	 -3.647109e-17
0	 0	 -1.323036e-15
0	 0	 -1.320964e-15
1.590548e-17	 -3.692335e-19	 1.247593e-15
0	 0	 -1.318249e-15
0	 0	 -1.321903e-15
1.191924e-13	 -6.479455e-14	 -3.391717e-17
1.192106e-13	 6.481844e-14	 -3.793604e-17
9.769891e-14	 -5.218487e-14	 5.129819e-16
0	 0	 -7.037171e-16
-9.770749e-14	 5.225452e-14	 5.119155e-16
0	 0	 -7.064951e-16
-4.674313e-18	 3.737902e-17	 6.346889e-16
0	 0	 -7.081921e-16
0	 0	 -7.059536e-16
9.771913e-14	 5.221738e-14	 5.101344e-16
-9.769134e-14	 -5.221878e-14	 5.109818e-16
-9.769948e-14	 -5.221837e-14	 -5.839418e-16
9.770143e-14	 -5.220527e-14	 -5.815785e-16
1.409215e-13	 -7.339059e-14	 -3.422640e-17
-1.409281e-13	 7.344345e-14	 -3.619075e-17
-9.770498e-14	 5.223412e-14	 -5.841532e-16
1.496225e-17	 -7.263770e-19	 6.326662e-16
9.771099e-14	 5.221779e-14	 -5.859877e-16
-1.409175e-13	 -7.341510e-14	 -3.641191e-17
1.409387e-13	 7.341407e-14	 -3.799477e-17
-1.927035e-14	 -3.334513e-13	 -3.321401e-17
-1.924396e-14	 3.334598e-13	 -3.720937e-17
0	 0	 -4.640403e-14
-2.229633e-17	 7.801041e-18	 4.633691e-14
0	 0	 -4.640737e-14
0	 0	 -4.640996e-14
2.005868e-17	 -8.591799e-18	 4.633595e-14
0	 0	 -4.640796e-14
1.923882e-14	 3.334623e-13	 -3.557436e-17
1.927233e-14	 -3.334719e-13	 -3.579821e-17
7.902694e-15	 -3.391670e-13	 -3.328219e-17
0	 0	 -2.837966e-14
0	 0	 -2.838281e-14
7.927002e-15	 3.391752e-13	 -3.742569e-17
-7.898976e-15	 -3.391874e-13	 -3.558248e-17
0	 0	 -2.838533e-14
0	 0	 -2.838272e-14
-7.927691e-15	 3.391769e-13	 -3.550689e-17
1.981696e-17	 -8.634270e-18	 2.831101e-14
-1.767619e-17	 6.973642e-18	 2.831244e-14
1.954718e-17	 -8.543239e-18	 1.031259e-14
0	 0	 -1.038180e-14
-1.302227e-17	 6.120531e-18	 1.031449e-14
0	 0	 -1.038475e-14
0	 0	 -1.038720e-14
0	 0	 -1.038399e-14
-3.579889e-14	 3.430517e-13	 -3.543853e-17
3.578048e-14	 -3.430431e-13	 -3.335128e-17
3.580269e-14	 3.430509e-13	 -3.764055e-17
-3.577504e-14	 -3.430630e-13	 -3.536822e-17
0	 0	 -5.787339e-14
-8.493185e-18	 -3.088791e-13	 -3.917115e-14
-1.620319e-17	 -4.179429e-13	 -3.341392e-17
-2.194002e-17	 -3.088933e-13	 3.910428e-14
-2.486637e-17	 -2.581639e-17	 5.780643e-14
-2.397036e-17	 3.088449e-13	 3.910404e-14
-1.896319e-17	 4.179064e-13	 -3.385841e-17
-1.052353e-17	 3.088591e-13	 -3.917172e-14
0	 0	 -5.787402e-14
0	 0	 -4.601995e-14
-2.270488e-17	 -2.590507e-17	 4.595333e-14
0	 0	 -4.602125e-14
-1.789950e-17	 4.199653e-13	 -3.409759e-17
-1.421008e-17	 -4.200019e-13	 -3.317473e-17
-1.224781e-17	 -4.212456e-13	 -3.293923e-17
-1.744257e-17	 -3.099323e-13	 2.359374e-14
0	 0	 -3.429423e-14
-6.293635e-18	 -3.099181e-13	 -2.365972e-14
-2.062230e-17	 3.098838e-13	 2.359298e-14
-9.473374e-18	 3.098980e-13	 -2.366154e-14
0	 0	 -3.429620e-14
-2.057314e-17	 -2.593473e-17	 3.422794e-14
-1.684703e-17	 4.212089e-13	 -3.433308e-17
-1.845277e-17	 -2.594837e-17	 2.248147e-14
-1.580288e-17	 4.223494e-13	 -3.456934e-17
0	 0	 -2.254742e-14
-1.029332e-17	 -4.223861e-13	 -3.270297e-17
0	 0	 -2.255006e-14
0	 0	 -1.065682e-14
-4.106879e-18	 -3.093988e-13	 -8.089301e-15
-1.297330e-17	 -3.094130e-13	 8.024201e-15
-1.630985e-17	 -2.588956e-17	 1.059121e-14
-1.729859e-17	 3.093646e-13	 8.022929e-15
-1.474946e-17	 4.225304e-13	 -3.480882e-17
-8.432175e-18	 3.093788e-13	 -8.092373e-15
0	 0	 -1.066014e-14
-8.316187e-18	 -4.225670e-13	 -3.246348e-17
1.599944e-17	 4.225609e-13	 -3.750007e-17
0	 0	 -1.066330e-14
8.638432e-18	 3.093974e-13	 -8.095251e-15
2.032922e-17	 3.093959e-13	 8.020471e-15
2.166094e-17	 -2.730558e-18	 1.058930e-14
1.958555e-17	 -3.094010e-13	 8.022356e-15
1.463371e-17	 -4.225647e-13	 -3.406300e-17
7.894774e-18	 -3.093995e-13	 -8.090702e-15
0	 0	 -1.065844e-14
0	 0	 -2.255384e-14
1.483562e-17	 4.223800e-13	 -3.748081e-17
0	 0	 -2.254903e-14
2.072175e-17	 -2.775880e-18	 2.247987e-14
1.446932e-17	 -4.223839e-13	 -3.408225e-17
1.979195e-17	 -2.786540e-18	 3.422665e-14
1.430352e-17	 -4.212433e-13	 -3.410011e-17
0	 0	 -3.430059e-14
7.329063e-18	 3.099167e-13	 -2.366554e-14
1.849085e-17	 -3.099204e-13	 2.359269e-14
7.795880e-18	 -3.099189e-13	 -2.366113e-14
0	 0	 -3.429583e-14
1.368650e-17	 4.212394e-13	 -3.746296e-17
1.802404e-17	 3.099151e-13	 2.359086e-14
1.253532e-17	 4.199957e-13	 -3.744532e-17
1.413623e-17	 -4.199996e-13	 -3.411774e-17
0	 0	 -4.602625e-14
1.885965e-17	 -2.791277e-18	 4.595234e-14
0	 0	 -4.602155e-14
0	 0	 -5.787964e-14
6.012460e-18	 3.088777e-13	 -3.917683e-14
1.136162e-17	 4.179367e-13	 -3.742581e-17
1.570627e-17	 3.088762e-13	 3.910225e-14
1.791250e-17	 -2.768598e-18	 5.780575e-14
1.739044e-17	 -3.088814e-13	 3.910402e-14
1.397046e-17	 -4.179406e-13	 -3.413724e-17
7.696635e-18	 -3.088799e-13	 -3.917257e-14
0	 0	 -5.787499e-14
-3.579845e-14	 -3.430849e-13	 -3.139645e-17
3.576895e-14	 3.430289e-13	 -3.443016e-17
-3.577181e-14	 3.430748e-13	 -3.736186e-17
3.580463e-14	 -3.430586e-13	 -3.268370e-17
0	 0	 -1.037986e-14
0	 0	 -1.038415e-14
0	 0	 -1.038756e-14
2.320971e-17	 1.147264e-17	 1.031421e-14
0	 0	 -1.038095e-14
-2.085582e-17	 -3.958148e-17	 1.031618e-14
2.113161e-17	 1.181797e-17	 2.831306e-14
-2.031728e-17	 -3.977858e-17	 2.831464e-14
7.927931e-15	 -3.391830e-13	 -3.238238e-17
0	 0	 -2.837923e-14
0	 0	 -2.838171e-14
-7.924318e-15	 -3.392098e-13	 -3.203613e-17
7.895585e-15	 3.391535e-13	 -3.379108e-17
0	 0	 -2.838684e-14
0	 0	 -2.837937e-14
-7.898046e-15	 3.391997e-13	 -3.766392e-17
-1.927311e-14	 3.334385e-13	 -3.314893e-17
-1.924400e-14	 -3.334674e-13	 -3.208208e-17
0	 0	 -4.640511e-14
-1.984587e-17	 -3.966807e-17	 4.633962e-14
0	 0	 -4.640578e-14
0	 0	 -4.641263e-14
1.906863e-17	 1.214851e-17	 4.633842e-14
0	 0	 -4.640431e-14
1.924504e-14	 -3.334946e-13	 -3.267886e-17
1.927097e-14	 3.334845e-13	 -3.796494e-17
-1.409421e-13	 -7.344246e-14	 -2.965155e-17
1.408977e-13	 7.341195e-14	 -3.477715e-17
-9.771166e-14	 -5.223511e-14	 -5.766081e-16
-3.138856e-17	 -2.157161e-17	 6.379267e-16
-9.769618e-14	 5.223355e-14	 -5.856077e-16
-1.409107e-13	 7.344107e-14	 -3.710789e-17
1.409487e-13	 -7.340530e-14	 -3.131034e-17
9.771673e-14	 -5.221407e-14	 -5.779682e-16
-9.772855e-14	 -5.224688e-14	 5.169331e-16
9.767090e-14	 5.220670e-14	 5.141485e-16
9.768778e-14	 5.221847e-14	 -5.833309e-16
0	 0	 -6.987310e-16
0	 0	 -7.059797e-16
2.685245e-17	 2.528777e-17	 6.356796e-16
0	 0	 -7.081973e-16
9.773127e-14	 -5.220030e-14	 5.149519e-16
0	 0	 -6.999984e-16
-9.768164e-14	 5.224733e-14	 5.117875e-16
-1.192124e-13	 -6.484626e-14	 -2.973029e-17
-1.191821e-13	 6.484523e-14	 -3.742444e-17
0	 0	 -1.323700e-15
0	 0	 -1.314605e-15
-2.915532e-17	 -2.073579e-17	 1.253175e-15
0	 0	 -1.314090e-15
0	 0	 -1.321116e-15
1.191712e-13	 6.481693e-14	 -3.469796e-17
1.192190e-13	 -6.480905e-14	 -3.099327e-17
2.608812e-17	 2.558536e-17	 1.250735e-15
6.801243e-14	 -4.046085e-14	 -1.115381e-15
-9.776114e-14	 -5.638223e-14	 -2.980718e-17
6.797260e-14	 4.045577e-14	 1.052718e-15
-9.773180e-14	 5.638158e-14	 -3.773890e-17
6.802615e-14	 -4.044677e-14	 1.053489e-15
-6.797929e-14	 4.049484e-14	 1.049666e-15
0	 0	 -1.929004e-15
-6.800763e-14	 -4.048202e-14	 -1.115301e-15
-2.696217e-17	 -1.986941e-17	 1.867980e-15
0	 0	 -1.935811e-15
2.531571e-17	 2.584629e-17	 1.865349e-15
0	 0	 -1.938759e-15
-6.799302e-14	 4.048076e-14	 -1.124608e-15
0	 0	 -1.928774e-15
-6.802214e-14	 -4.049289e-14	 1.055327e-15
6.798711e-14	 4.046664e-14	 -1.121600e-15
9.772301e-14	 5.635413e-14	 -3.462060e-17
9.776760e-14	 -5.634503e-14	 -3.067828e-17
0	 0	 -2.533698e-15
-7.608116e-14	 -4.784314e-14	 -2.988351e-17
7.604615e-14	 4.781628e-14	 -3.454382e-17
0	 0	 -2.540289e-15
0	 0	 -2.543599e-15
7.608753e-14	 -4.780597e-14	 -3.036361e-17
0	 0	 -2.532725e-15
-7.605282e-14	 4.784289e-14	 -3.805306e-17
-2.475521e-17	 -1.899490e-17	 2.472566e-15
2.453904e-17	 2.610443e-17	 2.469745e-15
-3.812173e-14	 -2.868231e-14	 -1.637458e-15
-3.810798e-14	 2.868139e-14	 -1.647074e-15
5.417867e-14	 -3.919764e-14	 -3.004737e-17
3.812622e-14	 -2.866110e-14	 -1.636262e-15
0	 0	 -3.133700e-15
-5.417242e-14	 -3.923473e-14	 -2.996205e-17
-2.253001e-17	 -1.807615e-17	 3.072457e-15
3.809243e-14	 2.865835e-14	 1.574753e-15
5.414056e-14	 3.920917e-14	 -3.446484e-17
3.810457e-14	 2.866828e-14	 -1.643337e-15
0	 0	 -3.140068e-15
0	 0	 -3.143744e-15
-5.414509e-14	 3.923489e-14	 -3.836879e-17
2.374184e-17	 2.633928e-17	 3.069444e-15
3.813911e-14	 -2.864675e-14	 1.575491e-15
0	 0	 -3.131976e-15
-3.813386e-14	 -2.869224e-14	 1.577188e-15
-3.809509e-14	 2.869574e-14	 1.571013e-15
0	 0	 9.542762e-15
-4.656009e-17	 9.875407e-18	 -9.600592e-15
2.489155e-13	 -1.990471e-13	 -3.535932e-17