# vtk DataFile Version 3.0
Unstructured Grid Example
ASCII
DATASET UNSTRUCTURED_GRID
POINTS 1641 float
-9.500000e-01	 0	 0
-9.500000e-01	 0	 3.750000e-01
-9.500000e-01	 0	 1.125000e+00
-9.500000e-01	 0	 1.500000e+00
-9.500000e-01	 0	 1.875000e+00
-9.500000e-01	 0	 2.250000e+00
-9.500000e-01	 0	 2.625000e+00
-9.500000e-01	 0	 3
-9.500000e-01	 0	 7.500000e-01
-9.341401e-01	 -1.728649e-01	 1.500000e+00
-9.341401e-01	 -1.728649e-01	 0
-9.341401e-01	 -1.728649e-01	 3.000000e+00
-9.341401e-01	 1.728649e-01	 2.250000e+00
-9.341401e-01	 1.728649e-01	 0
-9.341401e-01	 1.728649e-01	 1.500000e+00
-9.341401e-01	 1.728649e-01	 3.000000e+00
-9.341401e-01	 -1.728649e-01	 7.500000e-01
-9.341401e-01	 -1.728649e-01	 2.250000e+00
-9.341401e-01	 1.728649e-01	 7.500000e-01
-8.832989e-01	 -3.496900e-01	 1.125000e+00
-8.832989e-01	 -3.496900e-01	 1.875000e+00
-8.832989e-01	 -3.496900e-01	 2.625000e+00
-8.832989e-01	 -3.496900e-01	 2.250000e+00
-8.832989e-01	 3.496900e-01	 1.125000e+00
-8.832989e-01	 -3.496900e-01	 0
-8.832989e-01	 -3.496900e-01	 3.000000e+00
-8.832989e-01	 -3.496900e-01	 3.750000e-01
-8.832989e-01	 -3.496900e-01	 7.500000e-01
-8.832989e-01	 3.496900e-01	 3.750000e-01
-8.832989e-01	 3.496900e-01	 7.500000e-01
-8.832989e-01	 3.496900e-01	 2.250000e+00
-8.832989e-01	 3.496900e-01	 2.625000e+00
-8.832989e-01	 3.496900e-01	 0
-8.832989e-01	 3.496900e-01	 1.875000e+00
-8.832989e-01	 3.496900e-01	 3.000000e+00
-8.832989e-01	 -3.496900e-01	 1.500000e+00
-8.832989e-01	 3.496900e-01	 1.500000e+00
-8.787500e-01	 0	 2.250000e+00
-8.787500e-01	 0	 0
-8.787500e-01	 0	 1.500000e+00
-8.787500e-01	 0	 3
-8.787500e-01	 0	 7.500000e-01
-8.149622e-01	 -3.223238e-01	 7.500000e-01
-8.149622e-01	 3.223238e-01	 7.500000e-01
-8.149622e-01	 -3.223238e-01	 2.250000e+00
-8.149622e-01	 3.223238e-01	 2.250000e+00
-8.149622e-01	 -3.223238e-01	 0
-8.149622e-01	 -3.223238e-01	 1.500000e+00
-8.149622e-01	 -3.223238e-01	 3
-8.149622e-01	 3.223238e-01	 1.500000e+00
-8.149622e-01	 3.223238e-01	 0
-8.149622e-01	 3.223238e-01	 3
-8.075000e-01	 0	 7.500000e-01
-8.075000e-01	 0	 2.250000e+00
-8.075000e-01	 0	 3.750000e-01
-8.075000e-01	 0	 1.875000e+00
-8.075000e-01	 0	 2.625000e+00
-8.075000e-01	 0	 0
-8.075000e-01	 0	 1.125000e+00
-8.075000e-01	 0	 1.500000e+00
-8.075000e-01	 0	 3
-7.951457e-01	 -5.198493e-01	 7.500000e-01
-7.951457e-01	 5.198493e-01	 7.500000e-01
-7.951457e-01	 -5.198493e-01	 0
-7.951457e-01	 -5.198493e-01	 1.500000e+00
-7.951457e-01	 -5.198493e-01	 2.250000e+00
-7.951457e-01	 -5.198493e-01	 3
-7.951457e-01	 5.198493e-01	 0
-7.951457e-01	 5.198493e-01	 1.500000e+00
-7.951457e-01	 5.198493e-01	 2.250000e+00
-7.951457e-01	 5.198493e-01	 3
-7.894916e-01	 -1.451644e-01	 7.500000e-01
-7.894916e-01	 1.451644e-01	 7.500000e-01
-7.894916e-01	 1.451644e-01	 0
-7.894916e-01	 1.451644e-01	 3
-7.894916e-01	 -1.451644e-01	 0
-7.894916e-01	 -1.451644e-01	 1.500000e+00
-7.894916e-01	 -1.451644e-01	 2.250000e+00
-7.894916e-01	 -1.451644e-01	 3
-7.894916e-01	 1.451644e-01	 1.500000e+00
-7.894916e-01	 1.451644e-01	 2.250000e+00
-7.430021e-01	 -2.929055e-01	 1.500000e+00
-7.430021e-01	 2.929055e-01	 1.500000e+00
-7.430021e-01	 -2.929055e-01	 2.250000e+00
-7.430021e-01	 -2.929055e-01	 0
-7.430021e-01	 -2.929055e-01	 3.000000e+00
-7.430021e-01	 2.929055e-01	 3.750000e-01
-7.430021e-01	 -2.929055e-01	 3.750000e-01
-7.430021e-01	 -2.929055e-01	 1.125000e+00
-7.430021e-01	 -2.929055e-01	 1.875000e+00
-7.430021e-01	 -2.929055e-01	 2.625000e+00
-7.430021e-01	 2.929055e-01	 1.125000e+00
-7.430021e-01	 2.929055e-01	 0
-7.430021e-01	 2.929055e-01	 1.875000e+00
-7.430021e-01	 2.929055e-01	 2.250000e+00
-7.430021e-01	 2.929055e-01	 2.625000e+00
-7.430021e-01	 2.929055e-01	 3.000000e+00
-7.430021e-01	 2.929055e-01	 7.500000e-01
-7.430021e-01	 -2.929055e-01	 7.500000e-01
-7.362500e-01	 0	 0
-7.362500e-01	 0	 7.500000e-01
-7.362500e-01	 0	 1.500000e+00
-7.362500e-01	 0	 2.250000e+00
-7.362500e-01	 0	 3
-6.717514e-01	 -6.717514e-01	 2.625000e+00
-6.717514e-01	 6.717514e-01	 2.625000e+00
-6.717514e-01	 -6.717514e-01	 0
-6.717514e-01	 -6.717514e-01	 3.750000e-01
-6.717514e-01	 -6.717514e-01	 7.500000e-01
-6.717514e-01	 -6.717514e-01	 1.125000e+00
-6.717514e-01	 -6.717514e-01	 1.875000e+00
-6.717514e-01	 -6.717514e-01	 3.000000e+00
-6.717514e-01	 -6.717514e-01	 2.250000e+00
-6.717514e-01	 6.717514e-01	 1.500000e+00
-6.717514e-01	 6.717514e-01	 0
-6.717514e-01	 6.717514e-01	 3.750000e-01
-6.717514e-01	 6.717514e-01	 7.500000e-01
-6.717514e-01	 6.717514e-01	 1.125000e+00
-6.717514e-01	 6.717514e-01	 1.875000e+00
-6.717514e-01	 6.717514e-01	 3.000000e+00
-6.717514e-01	 -6.717514e-01	 1.500000e+00
-6.717514e-01	 6.717514e-01	 2.250000e+00
-6.682985e-01	 -2.618048e-01	 0
-6.682985e-01	 -2.618048e-01	 1.500000e+00
-6.682985e-01	 -2.618048e-01	 3
-6.682985e-01	 -2.618048e-01	 7.500000e-01
-6.682985e-01	 -2.618048e-01	 2.250000e+00
-6.682985e-01	 2.618048e-01	 7.500000e-01
-6.682985e-01	 2.618048e-01	 2.250000e+00
-6.682985e-01	 2.618048e-01	 0
-6.682985e-01	 2.618048e-01	 1.500000e+00
-6.682985e-01	 2.618048e-01	 3
-6.665713e-01	 -4.348738e-01	 2.250000e+00
-6.665713e-01	 -4.348738e-01	 7.500000e-01
-6.665713e-01	 4.348738e-01	 7.500000e-01
-6.665713e-01	 4.348738e-01	 2.250000e+00
-6.665713e-01	 -4.348738e-01	 0
-6.665713e-01	 -4.348738e-01	 3
-6.665713e-01	 4.348738e-01	 0
-6.665713e-01	 4.348738e-01	 1.500000e+00
-6.665713e-01	 4.348738e-01	 3
-6.665713e-01	 -4.348738e-01	 1.500000e+00
-6.650000e-01	 0	 7.500000e-01
-6.650000e-01	 0	 0
-6.650000e-01	 0	 3.750000e-01
-6.650000e-01	 0	 1.125000e+00
-6.650000e-01	 0	 1.500000e+00
-6.650000e-01	 0	 1.875000e+00
-6.650000e-01	 0	 2.625000e+00
-6.650000e-01	 0	 3
-6.650000e-01	 0	 2.250000e+00
-6.383743e-01	 -1.144482e-01	 0
-6.383743e-01	 -1.144482e-01	 3.000000e+00
-6.383743e-01	 -1.144482e-01	 7.500000e-01
-6.383743e-01	 -1.144482e-01	 1.500000e+00
-6.383743e-01	 -1.144482e-01	 2.250000e+00
-6.383743e-01	 1.144482e-01	 7.500000e-01
-6.383743e-01	 1.144482e-01	 1.500000e+00
-6.383743e-01	 1.144482e-01	 0
-6.383743e-01	 1.144482e-01	 2.250000e+00
-6.383743e-01	 1.144482e-01	 3.000000e+00
-6.189903e-01	 -6.189903e-01	 0
-6.189903e-01	 -6.189903e-01	 1.500000e+00
-6.189903e-01	 -6.189903e-01	 3.000000e+00
-6.189903e-01	 6.189903e-01	 2.250000e+00
-6.189903e-01	 6.189903e-01	 0
-6.189903e-01	 6.189903e-01	 1.500000e+00
-6.189903e-01	 6.189903e-01	 3.000000e+00
-6.189903e-01	 -6.189903e-01	 2.250000e+00
-6.189903e-01	 -6.189903e-01	 7.500000e-01
-6.189903e-01	 6.189903e-01	 7.500000e-01
-5.937500e-01	 0	 0
-5.937500e-01	 0	 7.500000e-01
-5.937500e-01	 0	 1.500000e+00
-5.937500e-01	 0	 2.250000e+00
-5.937500e-01	 0	 3
-5.917666e-01	 2.294176e-01	 1.875000e+00
-5.917666e-01	 2.294176e-01	 2.250000e+00
-5.917666e-01	 -2.294176e-01	 2.250000e+00
-5.917666e-01	 -2.294176e-01	 0
-5.917666e-01	 -2.294176e-01	 2.625000e+00
-5.917666e-01	 -2.294176e-01	 3
-5.917666e-01	 -2.294176e-01	 1.500000e+00
-5.917666e-01	 -2.294176e-01	 1.875000e+00
-5.917666e-01	 2.294176e-01	 0
-5.917666e-01	 2.294176e-01	 2.625000e+00
-5.917666e-01	 2.294176e-01	 3
-5.917666e-01	 2.294176e-01	 1.500000e+00
-5.917666e-01	 -2.294176e-01	 3.750000e-01
-5.917666e-01	 -2.294176e-01	 7.500000e-01
-5.917666e-01	 -2.294176e-01	 1.125000e+00
-5.917666e-01	 2.294176e-01	 7.500000e-01
-5.917666e-01	 2.294176e-01	 1.125000e+00
-5.917666e-01	 2.294176e-01	 3.750000e-01
-5.620800e-01	 5.620800e-01	 1.125000e+00
-5.620800e-01	 -5.620800e-01	 1.125000e+00
-5.620800e-01	 -5.620800e-01	 3.750000e-01
-5.620800e-01	 -5.620800e-01	 7.500000e-01
-5.620800e-01	 -5.620800e-01	 1.875000e+00
-5.620800e-01	 -5.620800e-01	 2.625000e+00
-5.620800e-01	 5.620800e-01	 3.750000e-01
-5.620800e-01	 5.620800e-01	 7.500000e-01
-5.620800e-01	 5.620800e-01	 1.875000e+00
-5.620800e-01	 -5.620800e-01	 0
-5.620800e-01	 -5.620800e-01	 1.500000e+00
-5.620800e-01	 -5.620800e-01	 2.250000e+00
-5.620800e-01	 -5.620800e-01	 3
-5.620800e-01	 5.620800e-01	 0
-5.620800e-01	 5.620800e-01	 1.500000e+00
-5.620800e-01	 5.620800e-01	 2.250000e+00
-5.620800e-01	 5.620800e-01	 3
-5.620800e-01	 5.620800e-01	 2.625000e+00
-5.250231e-01	 -3.396892e-01	 7.500000e-01
-5.250231e-01	 3.396892e-01	 1.500000e+00
-5.250231e-01	 3.396892e-01	 2.250000e+00
-5.250231e-01	 3.396892e-01	 7.500000e-01
-5.250231e-01	 -3.396892e-01	 2.250000e+00
-5.250231e-01	 -3.396892e-01	 0
-5.250231e-01	 -3.396892e-01	 1.500000e+00
-5.250231e-01	 -3.396892e-01	 3.000000e+00
-5.250231e-01	 3.396892e-01	 0
-5.250231e-01	 3.396892e-01	 3.000000e+00
-5.225000e-01	 0	 1.500000e+00
-5.225000e-01	 0	 2.250000e+00
-5.225000e-01	 0	 0
-5.225000e-01	 0	 3.750000e-01
-5.225000e-01	 0	 7.500000e-01
-5.225000e-01	 0	 1.125000e+00
-5.225000e-01	 0	 1.875000e+00
-5.225000e-01	 0	 2.625000e+00
-5.225000e-01	 0	 3
-5.198493e-01	 7.951457e-01	 7.500000e-01
-5.198493e-01	 -7.951457e-01	 7.500000e-01
-5.198493e-01	 -7.951457e-01	 0
-5.198493e-01	 -7.951457e-01	 1.500000e+00
-5.198493e-01	 -7.951457e-01	 2.250000e+00
-5.198493e-01	 -7.951457e-01	 3
-5.198493e-01	 7.951457e-01	 0
-5.198493e-01	 7.951457e-01	 1.500000e+00
-5.198493e-01	 7.951457e-01	 2.250000e+00
-5.198493e-01	 7.951457e-01	 3
-5.143216e-01	 -1.961513e-01	 2.250000e+00
-5.143216e-01	 1.961513e-01	 7.500000e-01
-5.143216e-01	 1.961513e-01	 1.500000e+00
-5.143216e-01	 -1.961513e-01	 7.500000e-01
-5.143216e-01	 -1.961513e-01	 0
-5.143216e-01	 -1.961513e-01	 3.000000e+00
-5.143216e-01	 -1.961513e-01	 1.500000e+00
-5.143216e-01	 1.961513e-01	 2.250000e+00
-5.143216e-01	 1.961513e-01	 0
-5.143216e-01	 1.961513e-01	 3.000000e+00
-5.020120e-01	 -5.020120e-01	 7.500000e-01
-5.020120e-01	 -5.020120e-01	 1.500000e+00
-5.020120e-01	 5.020120e-01	 7.500000e-01
-5.020120e-01	 5.020120e-01	 1.500000e+00
-5.020120e-01	 -5.020120e-01	 0
-5.020120e-01	 -5.020120e-01	 2.250000e+00
-5.020120e-01	 -5.020120e-01	 3.000000e+00
-5.020120e-01	 5.020120e-01	 0
-5.020120e-01	 5.020120e-01	 2.250000e+00
-5.020120e-01	 5.020120e-01	 3.000000e+00
-4.847636e-01	 8.158725e-02	 7.500000e-01
-4.847636e-01	 -8.158725e-02	 7.500000e-01
[...]
POINT_DATA 1641
SCALARS pres_adim float 1
LOOKUP_TABLE default
-2.531284e+02
-1.007610e+02
2.432594e+02
1.194802e-07
-2.432594e+02
-1.789892e+02
1.007610e+02
2.531284e+02
1.789892e+02
3.298555e-07
-3.058612e+02
3.058612e+02
-1.382150e+02
-1.954661e+02
-1.937851e-07
1.954661e+02
2.162775e+02
-2.162775e+02
1.382150e+02
3.337967e+02
-3.337967e+02
1.382625e+02
-2.457018e+02
1.186192e+02
-3.474736e+02
3.474736e+02
-1.382625e+02
2.457018e+02
-4.913446e+01
8.691598e+01
-8.691598e+01
4.913446e+01
-1.229192e+02
-1.186192e+02
1.229192e+02
2.535651e-07
-3.641116e-07
-1.782446e+02
-2.520754e+02
1.127964e-07
2.520754e+02
1.782446e+02
2.446421e+02
8.663621e+01
-2.446421e+02
-8.663621e+01
-3.459751e+02
2.439589e-07
3.459751e+02
-3.521359e-07
-1.225235e+02
1.225235e+02
1.740982e+02
-1.740982e+02
-9.807482e+01
-2.367743e+02
9.807482e+01
-2.462115e+02
2.367743e+02
8.933799e-08
2.462115e+02
2.695801e+02
3.242556e+01
-3.812435e+02
-9.014582e-08
-2.695801e+02
3.812435e+02
-4.585823e+01
-2.093218e-07
-3.242556e+01
4.585823e+01
2.097957e+02
1.344117e+02
-1.900872e+02
1.900872e+02
-2.966947e+02
2.748164e-07
-2.097957e+02
2.966947e+02
-1.810460e-07
-1.344117e+02
2.245259e-07
-3.218882e-07
-2.378845e+02
-3.364185e+02
3.364185e+02
-4.788234e+01
-1.340127e+02
3.235366e+02
-3.235366e+02
1.340127e+02
1.155966e+02
-1.197934e+02
-1.155966e+02
-8.470587e+01
4.788234e+01
1.197934e+02
8.470587e+01
2.378845e+02
-2.384010e+02
1.685752e+02
5.935959e-08
-1.685752e+02
2.384010e+02
1.569441e+02
-1.443597e+01
-3.939918e+02
-1.569441e+02
2.785941e+02
3.788962e+02
-3.788962e+02
3.939918e+02
-2.785941e+02
1.381968e-07
3.624046e+01
1.443597e+01
-2.562634e+01
-3.485238e+01
3.485238e+01
-3.624046e+01
-3.954985e-07
2.562634e+01
-3.231470e+02
1.956715e-07
3.231470e+02
2.285000e+02
-2.285000e+02
8.197888e+01
-8.197888e+01
-1.159366e+02
-2.778858e-07
1.159366e+02
-2.608872e+02
2.608872e+02
3.164000e+01
-3.164000e+01
-3.689499e+02
3.689499e+02
-4.474704e+01
-1.883871e-07
4.474704e+01
-4.352950e-08
1.597627e+02
-2.259382e+02
-8.998515e+01
2.172438e+02
2.964508e-08
-2.172438e+02
8.998515e+01
2.259382e+02
-1.597627e+02
-2.678447e+02
2.678447e+02
1.893952e+02
1.582545e-07
-1.893952e+02
1.227618e+02
-1.437334e-07
-1.736117e+02
-1.227618e+02
1.736117e+02
-3.923322e+02
-3.747087e-07
3.923322e+02
2.551838e+01
3.608781e+01
1.393226e-07
-3.608781e+01
-2.774205e+02
2.774205e+02
-2.551838e+01
-2.117667e+02
1.497418e+02
5.372685e-09
-1.497418e+02
2.117667e+02
-1.053246e+02
-7.727540e+01
-2.126078e+02
-3.006722e+02
1.197912e+02
3.006722e+02
1.613507e-07
-2.892023e+02
-1.092846e+02
4.362728e+01
1.092846e+02
-2.239423e-07
-1.197912e+02
2.126078e+02
2.892023e+02
7.727540e+01
1.053246e+02
-4.362728e+01
-3.376129e+01
3.670346e+02
-1.520308e+02
2.695341e+02
-3.670346e+02
1.520308e+02
1.398408e+01
-2.479294e+01
3.376129e+01
-3.811790e+02
-2.905340e-07
-2.695341e+02
3.811790e+02
3.506195e+01
1.132686e-07
2.479294e+01
-3.506195e+01
-1.398408e+01
2.316858e+02
-1.369253e-07
-2.907287e+01
2.907287e+01
-2.316858e+02
-3.276529e+02
5.915387e-08
3.276529e+02
-4.111599e+01
4.111599e+01
-1.038631e-08
-1.367482e+02
-1.933910e+02
-7.679455e+01
1.367482e+02
1.853986e+02
-1.853986e+02
7.679455e+01
1.933910e+02
-8.299644e+01
2.801966e+02
-3.962584e+02
-3.834610e-07
-2.801966e+02
3.962584e+02
1.173752e+02
3.427965e-07
8.299644e+01
-1.173752e+02
-1.940894e+02
7.194672e+01
-1.698288e-07
1.940894e+02
-2.744836e+02
2.744836e+02
1.322901e-07
-7.194672e+01
-1.017485e+02
1.017485e+02
2.584168e+02
-1.790249e-07
-2.377029e+01
9.125993e-08
-3.654568e+02
-2.584168e+02
3.654568e+02
3.361582e+01
2.377029e+01
-3.361582e+01
1.035153e+02
1.554928e+02
-2.198998e+02
6.374485e-08
2.198998e+02
-1.554928e+02
-1.463929e+02
-8.722240e-08
-1.035153e+02
1.463929e+02
-1.381008e-08
-1.227489e+02
-1.735931e+02
1.227489e+02
1.735931e+02
3.256162e+02
-2.995143e+01
-3.381482e+02
1.348747e+02
3.381482e+02
-1.348747e+02
-6.444233e-08
2.995143e+01
3.110395e+01
-1.240611e+01
-3.110395e+01
-3.256162e+02
-2.391069e+02
2.199405e+01
1.240611e+01
6.622462e-08
-2.199405e+01
2.391069e+02
2.306943e+02
9.325277e-08
-3.646875e+01
3.646875e+01
-1.134863e-07
8.804299e+01
-1.699358e+02
9.555660e+01
-9.555660e+01
1.699358e+02
-9.180089e+01
6.491284e+01
-6.491284e+01
9.180089e+01
-8.804299e+01
-2.306943e+02
-2.403253e+02
2.403253e+02
8.058457e+01
-2.712097e+02
1.139642e+02
-1.139642e+02
2.712097e+02
-3.835488e+02
-2.865409e-07
3.835488e+02
2.954131e-07
-8.058457e+01
-1.503243e+02
-5.915745e+01
1.062953e+02
1.428187e+02
-1.277531e-08
-1.428187e+02
-1.062953e+02
5.915745e+01
1.503243e+02
1.819538e+02
-1.819538e+02
-2.573214e+02
2.573214e+02
9.495750e-08
-3.492984e+01
-6.997423e-08
-2.469894e+01
3.492984e+01
2.469894e+01
-2.166350e+02
-3.063682e+02
2.166350e+02
2.778046e-08
3.063682e+02
2.818077e+01
-1.992696e+01
3.961363e-08
-2.818077e+01
1.992696e+01
-1.438558e+02
-2.034428e+02
2.034428e+02
-8.116973e+01
8.116973e+01
-5.739557e+01
1.438558e+02
5.739557e+01
-6.774565e-08
6.284374e-08
3.615013e+02
-3.762101e+02
-3.615013e+02
3.762101e+02
-4.799806e-08
1.894862e+02
-1.894862e+02
-1.825754e+02
1.825754e+02
-7.562572e+01
-1.497388e+02
2.660206e+02
-2.660206e+02
1.497388e+02
1.642317e-07
7.562572e+01
1.339863e+02
-1.339863e+02
2.410337e+02
-7.696731e-08
-2.410337e+02
7.255554e+01
-7.255554e+01
-3.408733e+02
3.408733e+02
1.026092e+02
1.950514e-07
-1.026092e+02
1.106121e+02
1.791382e-08
-1.564292e+02
-1.106121e+02
1.564292e+02
-1.108444e+02
-3.364400e-08
-7.837879e+01
1.108444e+02
7.837879e+01
2.648910e+02
-2.648910e+02
-1.335051e+02
1.335051e+02
-3.746126e+02
3.746126e+02
1.888057e+02
1.659510e-07
-1.888057e+02
-3.672099e-08
1.872962e+02
-1.722824e+01
-2.340926e+01
2.544934e+02
-2.648769e+02
-1.054146e+02
6.276151e-08
-2.544934e+02
1.054146e+02
2.648769e+02
2.436430e+01
9.696372e+00
3.350644e-08
2.340926e+01
-9.696371e+00
-2.436430e+01
-1.872962e+02
1.722824e+01
-1.994136e-08
-1.451841e+02
7.356375e+01
1.302881e+02
1.609977e-07
-3.643864e+02
-3.505052e+02
-2.576600e+02
1.451841e+02
3.643864e+02
-1.775975e+02
1.775975e+02
1.842559e+02
-1.842559e+02
3.505052e+02
2.576600e+02
-1.302881e+02
-7.356375e+01
-6.397862e+01
-1.617298e+02
1.544581e+02
3.440755e-08
-1.544581e+02
-1.143602e+02
6.397862e+01
1.617298e+02
-6.915671e+01
4.890113e+01
-4.890113e+01
2.734616e+01
6.915671e+01
6.601938e+01
-3.547769e-08
1.143602e+02
-2.734616e+01
-6.601938e+01
-3.501727e+02
6.443691e-09
3.501727e+02
1.778710e+02
1.599418e-07
-1.778710e+02
2.476094e+02
-2.476094e+02
-1.257733e+02
1.257733e+02
-2.203875e+02
1.558375e+02
6.551661e-08
2.203875e+02
2.027203e+01
-1.433452e+01
1.698826e-08
-2.027202e+01
-1.558375e+02
1.433452e+01
1.896415e+02
-5.887972e+01
5.887972e+01
-2.681937e+02
4.455884e-08
-1.896415e+02
2.681937e+02
8.326856e+01
-8.326856e+01
1.023164e-07
-1.490846e-08
9.562518e-09
4.476298e-08
-1.214926e+02
1.214926e+02
-2.179540e-08
-1.668353e+02
-1.179704e+02
1.668353e+02
1.179704e+02
-8.590827e+01
8.590827e+01
-7.424444e+01
5.249873e+01
7.424444e+01
-5.249873e+01
1.913260e+01
-2.705763e+01
-1.913260e+01
2.705763e+01
1.180409e+02
-2.305734e+02
3.083918e-08
-1.299303e+02
6.659750e+01
-3.260801e+02
1.299303e+02
3.260801e+02
-1.180409e+02
1.669356e+02
-6.659750e+01
-1.669356e+02
-3.136794e+02
2.305734e+02
3.136794e+02
-1.607800e+02
1.539002e-07
1.607800e+02
-1.091854e+02
4.041239e-08
-2.980462e+02
2.980462e+02
1.544118e+02
-1.544118e+02
2.107504e+02
-2.107504e+02
1.423463e-07
1.091854e+02
1.208821e+02
-1.111919e+01
-6.764879e+01
-3.837964e-09
5.588878e+01
6.222574e+00
-1.709531e+02
1.633186e+02
4.148091e-08
-1.633186e+02
-1.208821e+02
6.764879e+01
1.709531e+02
3.121351e+01
-3.121351e+01
-7.903869e+01
-7.535605e+01
7.903869e+01
-5.588878e+01
1.572488e+01
-1.502265e+01
1.047942e-08
1.502265e+01
1.111919e+01
-6.222574e+00
-1.572488e+01
7.535605e+01
-1.950311e-07
-3.473478e+02
3.113336e-07
3.473478e+02
2.555509e+02
-2.555509e+02
-2.456120e+02
2.456120e+02
-1.807013e+02
1.807013e+02
2.509666e+02
-1.323479e+02
4.500152e-08
-2.509666e+02
1.323479e+02
9.755010e+01
1.214834e-07
1.039538e+02
-2.614594e+02
1.848796e+02
-1.848796e+02
2.614594e+02
1.379569e+02
-1.379569e+02
-5.482042e+01
-1.039538e+02
5.482042e+01
-9.755010e+01
2.383140e+02
-3.370269e+02
3.370269e+02
-1.756304e+02
2.567109e-07
-2.383140e+02
2.483795e+02
-1.335584e-07
1.756304e+02
-2.483795e+02
9.228043e+01
-8.488294e+00
3.653070e-09
3.298939e-08
-1.747028e+02
-1.235335e+02
1.747028e+02
-9.228043e+01
-1.305042e+02
2.003339e-08
1.305042e+02
-8.361389e+01
3.996051e-09
-5.912394e+01
8.361389e+01
5.912394e+01
2.534466e+01
-3.584277e+01
3.584277e+01
-2.534466e+01
1.200425e+01
8.488294e+00
-1.200425e+01
5.847353e+01
4.134702e+01
-5.847353e+01
3.427122e-08
1.235335e+02
-9.652319e-09
-4.134702e+01
-1.569599e+02
3.288560e-08
-2.219748e+02
2.219748e+02
1.569599e+02
8.985525e-08
-8.506571e+01
1.203012e+02
-1.203012e+02
8.506571e+01
-3.046275e+02
-2.154041e+02
3.046275e+02
2.262700e+02
-2.262700e+02
-4.863585e-09
1.599967e+02
-1.599967e+02
2.154041e+02
1.374994e-07
-1.969162e-09
1.693432e+02
1.977033e-08
-3.468782e+01
3.468782e+01
-6.204991e+01
3.190711e+00
3.968327e+01
-1.773211e+02
1.253849e+02
-1.253849e+02
7.014425e+01
1.773211e+02
-1.693432e+02
-8.775184e+01
8.775184e+01
6.204991e+01
8.374379e+01
3.504020e-09
8.071733e+00
-5.707578e+00
7.703060e+00
5.707578e+00
-3.190711e+00
-8.071733e+00
-7.095377e+01
1.003438e+02
-9.580380e+01
5.776470e-08
9.580380e+01
7.095377e+01
-3.968327e+01
-1.003438e+02
-7.014425e+01
-8.374379e+01
-7.703060e+00
1.773523e+02
-1.341316e+02
-2.508141e+02
3.808076e-08
-1.773523e+02
2.508141e+02
1.896910e+02
7.614824e-08
-1.896910e+02
1.341316e+02
1.270420e+02
-9.711486e+01
-2.879183e+00
-6.933386e+01
6.215362e-08
-1.796646e+02
-1.955102e-09
-1.270420e+02
1.796646e+02
1.661112e-09
-1.373412e+02
1.373412e+02
9.711486e+01
-6.483534e+01
-4.426635e+01
3.130103e+01
4.426635e+01
-4.894874e-09
-3.130103e+01
4.071780e+00
-4.794659e-09
2.879183e+00
-4.071780e+00
5.196796e+01
-5.196796e+01
6.246850e-09
3.674688e+01
6.933386e+01
9.805292e+01
-9.805292e+01
3.550515e-08
1.417595e+02
1.002391e+02
-1.417595e+02
-1.002391e+02
-9.169104e+01
-9.777322e-10
9.169104e+01
6.483534e+01
-3.674688e+01
-3.753747e+01
3.753747e+01
-9.062345e+01
9.062345e+01
6.721204e+01
-6.721204e+01
-3.044136e+02
-1.211760e+02
2.925444e+02
3.885532e-07
-2.925444e+02
-2.152527e+02
1.211760e+02
3.044136e+02
2.152527e+02
-2.143573e+02
-3.031472e+02
3.785336e-07
3.031472e+02
2.143573e+02
2.093708e+02
-2.093708e+02
-1.179455e+02
-2.847454e+02
1.179455e+02
-2.960953e+02
2.847454e+02
3.131130e-07
2.960953e+02
-2.867022e+02
2.027289e+02
2.397154e-07
-2.027289e+02
2.867022e+02
1.921309e+02
-2.717143e+02
-1.082167e+02
2.612580e+02
1.591572e-07
-2.612580e+02
1.082167e+02
2.717143e+02
-1.921309e+02
-2.546715e+02
1.800798e+02
7.929774e-08
-1.800798e+02
2.546715e+02
3.153636e-08
-1.644537e+02
-2.325728e+02
-9.235353e+01
1.644537e+02
2.229609e+02
-2.229609e+02
9.235353e+01
2.325728e+02
-9.074123e-09
-1.476182e+02
-2.087638e+02
1.476182e+02
2.087638e+02
-1.807805e+02
-7.114300e+01
1.278311e+02
1.717543e+02
-1.891251e-08
-1.717543e+02
-1.278311e+02
7.114300e+01
1.807805e+02
-7.085662e-08
-4.680895e-08
-1.624048e-08
-1.680314e-08
-5.412791e-09
2.136757e-08
2.091687e-08
-3.553816e-09
8.071668e-09
9.505220e+01
6.721204e+01
-9.505220e+01
-6.721204e+01
1.658735e-08
1.807805e+02
7.114300e+01
-1.278311e+02
-1.717543e+02
4.992055e-08
1.717543e+02
1.278311e+02
-7.114300e+01
-1.807805e+02
2.087638e+02
-1.476182e+02
-2.087638e+02
1.476182e+02
4.191581e-08
2.325728e+02
9.235353e+01
-1.644537e+02
-2.229609e+02
2.229609e+02
-9.235353e+01
-2.325728e+02
-3.529620e-09
1.644537e+02
2.546715e+02
-1.800798e+02
-5.729740e-08
1.800798e+02
-2.546715e+02
1.921309e+02
2.717143e+02
1.082167e+02
-2.612580e+02
-1.466497e-07
2.612580e+02
-1.082167e+02
-2.717143e+02
-1.921309e+02
2.867022e+02
-2.027289e+02
-2.370407e-07
2.027289e+02
-2.867022e+02
2.960953e+02
-2.847454e+02
-3.187484e-07
-2.960953e+02
1.179455e+02
2.847454e+02
-1.179455e+02
-2.093708e+02
2.093708e+02
-2.143573e+02
3.031472e+02
-3.889450e-07
-3.031472e+02
2.143573e+02
-2.152527e+02
3.044136e+02
1.211760e+02
-2.925444e+02
-4.011231e-07
2.925444e+02
2.152527e+02
-1.211760e+02
-3.044136e+02
-3.753747e+01
-9.505220e+01
9.505220e+01
-9.652957e-09
3.753747e+01
-9.062345e+01
9.062345e+01
3.674688e+01
-5.205006e-09
9.169104e+01
-6.483534e+01
4.426977e-09
-9.169104e+01
-5.196796e+01
-8.001084e-09
5.196796e+01
-2.495162e-09
1.002391e+02
-1.417595e+02
-3.889963e-08
-1.002391e+02
1.417595e+02
-9.805292e+01
9.805292e+01
-4.071780e+00
2.879183e+00
-2.879183e+00
4.071780e+00
4.426635e+01
3.130103e+01
-4.426635e+01
-3.130103e+01
6.483534e+01
-9.711486e+01
9.711486e+01
1.373412e+02
-1.373412e+02
1.796646e+02
3.439431e-08
1.270420e+02
-1.796646e+02
-1.270420e+02
-6.933386e+01
6.933386e+01
-3.674688e+01
1.862834e-08
-2.434047e-08
-1.341316e+02
-1.896910e+02
-5.242380e-08
1.896910e+02
2.508141e+02
1.217041e-09
1.773523e+02
-2.508141e+02
1.341316e+02
-1.773523e+02
-3.968327e+01
-7.703060e+00
6.204991e+01
1.326184e-09
7.014425e+01
-1.003438e+02
7.095377e+01
9.580380e+01
-4.027990e-08
-9.580380e+01
-7.095377e+01
3.968327e+01
1.003438e+02
5.707578e+00
-8.071734e+00
7.703060e+00
-1.119278e-09
-5.707578e+00
3.190711e+00
8.071733e+00
8.775184e+01
-6.204991e+01
-3.468782e+01
-8.775184e+01
3.468782e+01
-1.253849e+02
1.693432e+02
1.773211e+02
-1.693432e+02
1.498211e-08
1.253849e+02
-7.014425e+01
-1.773211e+02
-3.190711e+00
-8.374379e+01
8.374379e+01
-2.154041e+02
-1.176071e-07
1.599967e+02
1.483898e-08
-1.599967e+02
-2.262700e+02
2.262700e+02
3.046275e+02
2.154041e+02
-3.046275e+02
-8.506571e+01
-1.203012e+02
1.203012e+02
8.506571e+01
-6.961609e-08
-1.569599e+02
2.219748e+02
-2.219748e+02
1.206262e-08
1.569599e+02
-1.200425e+01
1.200425e+01
4.134702e+01
2.534466e+01
4.887239e-09
5.912394e+01
-1.235335e+02
-2.173207e-08
-5.847353e+01
-4.134702e+01
5.847353e+01
8.488294e+00
3.035323e-10
-8.488294e+00
-2.534466e+01
8.361389e+01
-8.361389e+01
-5.912394e+01
1.305042e+02
-9.228043e+01
9.228043e+01
-1.305042e+02
1.512356e-09
1.747028e+02
1.235335e+02
-1.747028e+02
1.517782e-09
3.584277e+01
1.271642e-08
-3.584277e+01
-2.483795e+02
1.307268e-07
-1.756304e+02
2.483795e+02
-2.670687e-07
2.383140e+02
1.756304e+02
3.370269e+02
-3.370269e+02
-2.383140e+02
-5.482042e+01
9.755010e+01
1.039538e+02
5.482042e+01
-1.379569e+02
1.379569e+02
2.614594e+02
-1.848796e+02
1.848796e+02
-2.614594e+02
-1.039538e+02
-1.004051e-07
-9.755010e+01
-1.323479e+02
2.509666e+02
3.676526e-09
1.323479e+02
-2.509666e+02
1.807013e+02
-1.807013e+02
-2.456120e+02
2.456120e+02
-2.555509e+02
2.555509e+02
3.473478e+02
-3.365770e-07
-3.473478e+02
1.867267e-07
7.903869e+01
-3.121351e+01
-7.903869e+01
-1.572488e+01
1.502265e+01
2.911121e-09
-1.502265e+01
-1.111919e+01
6.222574e+00
1.572488e+01
-5.588878e+01
-7.535605e+01
7.535605e+01
1.709531e+02
-1.633186e+02
-1.499618e-09
1.633186e+02
1.208821e+02
-6.764879e+01
-1.709531e+02
-6.222574e+00
3.121351e+01
2.049973e-08
5.588878e+01
6.764879e+01
1.111919e+01
-1.208821e+02
-1.091854e+02
-1.239926e-07
2.107504e+02
-2.107504e+02
-1.544118e+02
1.544118e+02
2.980462e+02
-2.980462e+02
4.066321e-09
1.091854e+02
-1.424173e-07
-1.607800e+02
1.607800e+02
-2.305734e+02
-3.136794e+02
3.136794e+02
-1.669356e+02
6.659750e+01
1.669356e+02
1.180409e+02
3.260801e+02
-1.299303e+02
-3.260801e+02
-6.659750e+01
1.299303e+02
-7.754242e-10
2.305734e+02
-1.180409e+02
-5.249873e+01
-8.590827e+01
2.705763e+01
1.913260e+01
-2.705763e+01
-1.913260e+01
-1.179704e+02
1.668353e+02
1.179704e+02
-1.668353e+02
3.896147e-08
7.424444e+01
5.249873e+01
-7.424444e+01
1.214926e+02
-1.214926e+02
8.590827e+01
-9.757232e-10
3.805062e-08
2.330346e-08
-8.426983e-08
-8.326856e+01
8.326856e+01
2.681937e+02
8.278448e-09
1.896415e+02
-2.681937e+02
-5.887972e+01
5.887972e+01
-1.896415e+02
-1.433452e+01
1.558375e+02
-2.027203e+01
1.433452e+01
-8.358229e-10
2.027202e+01
2.203875e+02
-1.558375e+02
-1.090623e-08
-2.203875e+02
1.257733e+02
-1.257733e+02
-2.476094e+02
2.476094e+02
-1.778710e+02
-1.524079e-07
1.778710e+02
3.501727e+02
5.470953e-09
-3.501727e+02
-4.890113e+01
6.601938e+01
2.734616e+01
6.397862e+01
-1.143602e+02
1.544581e+02
-6.601938e+01
6.358352e-08
6.915671e+01
4.890113e+01
-2.734616e+01
-6.915671e+01
1.617298e+02
-1.544581e+02
1.400507e-08
1.143602e+02
-6.397862e+01
-1.617298e+02
7.356375e+01
1.302881e+02
-2.576600e+02
-3.505052e+02
-1.842559e+02
1.842559e+02
1.775975e+02
-1.775975e+02
3.643864e+02
3.505052e+02
2.576600e+02
-1.451841e+02
-3.643864e+02
-1.588045e-07
-1.302881e+02
-7.356375e+01
1.451841e+02
1.053922e-08
-1.722824e+01
1.872962e+02
-2.436430e+01
-9.696372e+00
-1.708064e-08
-2.340926e+01
9.696371e+00
2.436430e+01
2.648769e+02
1.054146e+02
-2.291875e-09
2.544934e+02
-1.054146e+02
-2.648769e+02
-2.544934e+02
2.340926e+01
1.722824e+01
-1.872962e+02
1.137590e-08
-1.888057e+02
-1.657532e-07
1.888057e+02
3.746126e+02
-3.746126e+02
-1.335051e+02
1.335051e+02
2.648910e+02
-2.648910e+02
-7.837879e+01
7.528016e-08
1.108444e+02
7.837879e+01
-1.108444e+02
1.564292e+02
3.367683e-08
1.106121e+02
-1.564292e+02
-1.106121e+02
-1.026092e+02
-1.892878e-07
1.026092e+02
3.408733e+02
-3.408733e+02
7.255554e+01
-7.255554e+01
1.097284e-07
2.410337e+02
-2.410337e+02
1.339863e+02
-1.339863e+02
-7.562572e+01
-1.653883e-07
1.497388e+02
-2.660206e+02
2.660206e+02
-1.497388e+02
1.825754e+02
-1.825754e+02
7.562572e+01
-1.894862e+02
1.894862e+02
1.683000e-08
3.762101e+02
3.615013e+02
-3.762101e+02
-3.615013e+02
-1.786799e-09
1.010704e-07
-5.739557e+01
-1.438558e+02
5.739557e+01
8.116973e+01
-8.116973e+01
2.034428e+02
-2.034428e+02
1.438558e+02
-1.992696e+01
-2.818077e+01
1.992696e+01
-3.324698e-08
2.818077e+01
3.063682e+02
-2.166350e+02
2.416300e-08
-3.063682e+02
2.166350e+02
-2.469894e+01
3.492984e+01
8.777658e-08
2.469894e+01
-3.492984e+01
-3.203572e-08
2.573214e+02
-2.573214e+02
1.819538e+02
-1.819538e+02
1.503243e+02
5.915745e+01
-1.062953e+02
-1.428187e+02
6.440009e-08
1.428187e+02
1.062953e+02
-5.915745e+01
-1.503243e+02
8.058457e+01
-3.038838e-07
3.835488e+02
2.800935e-07
-3.835488e+02
-2.712097e+02
-1.139642e+02
1.139642e+02
2.712097e+02
-8.058457e+01
2.403253e+02
-2.403253e+02
2.306943e+02
8.804299e+01
9.180089e+01
-6.491284e+01
6.491284e+01
-9.180089e+01
9.555660e+01
-1.699358e+02
-9.555660e+01
1.699358e+02
-8.804299e+01
1.420775e-07
-3.646875e+01
3.646875e+01
-3.488309e-08
-2.306943e+02
-2.391069e+02
2.199405e+01
-1.240611e+01
-7.576800e-08
-2.199405e+01
2.391069e+02
3.256162e+02
-3.110395e+01
1.240611e+01
3.110395e+01
-2.995143e+01
1.348747e+02
9.593750e-08
3.381482e+02
-1.348747e+02
-3.381482e+02
2.995143e+01
-3.256162e+02
1.735931e+02
-1.227489e+02
-1.735931e+02
1.227489e+02
6.593407e-08
1.463929e+02
1.271927e-07
1.035153e+02
-1.463929e+02
1.554928e+02
2.198998e+02
-1.230562e-08
-2.198998e+02
-1.554928e+02
-1.035153e+02
-3.361582e+01
-2.377029e+01
3.361582e+01
3.654568e+02
2.584168e+02
-3.654568e+02
2.377029e+01
-1.147661e-07
-2.584168e+02
1.891189e-07
1.017485e+02
-1.017485e+02
7.194672e+01
-9.160221e-08
2.744836e+02
-2.744836e+02
-1.940894e+02
1.811481e-07
-7.194672e+01
1.940894e+02
-1.173752e+02
-3.538963e-07
-8.299644e+01
1.173752e+02
3.962584e+02
3.571298e-07
2.801966e+02
-3.962584e+02
-2.801966e+02
8.299644e+01
1.933910e+02
7.679455e+01
-1.367482e+02
-1.853986e+02
1.853986e+02
-7.679455e+01
-1.933910e+02
5.189218e-08
1.367482e+02
4.111599e+01
-4.111599e+01
3.276529e+02
-3.622490e-08
-3.276529e+02
2.316858e+02
-2.907287e+01
1.198000e-07
2.907287e+01
-2.316858e+02
1.398408e+01
-3.506195e+01
-1.538355e-07
-2.479294e+01
3.506195e+01
3.811790e+02
2.770160e-07
2.695341e+02
-3.811790e+02
-1.398408e+01
2.479294e+01
-3.376129e+01
-1.520308e+02
1.520308e+02
-2.695341e+02
3.670346e+02
-3.670346e+02
3.376129e+01
4.362728e+01
-7.727540e+01
-1.053246e+02
-2.892023e+02
-2.126078e+02
1.197912e+02
2.125678e-07
1.092846e+02
-4.362728e+01
-1.092846e+02
-1.517920e-07
2.892023e+02
3.006722e+02
-1.197912e+02
-3.006722e+02
2.126078e+02
7.727540e+01
1.053246e+02
2.117667e+02
-1.497418e+02
1.776889e-08
1.497418e+02
-2.117667e+02
2.551838e+01
-2.774205e+02
2.774205e+02
-3.608781e+01
-1.876156e-07
3.608781e+01
-2.551838e+01