# vtk DataFile Version 3.0
Unstructured Grid Example
ASCII
DATASET UNSTRUCTURED_GRID
POINTS 832 float
-1	 0	 0
-1	 0	 3.750000e-01
-1	 0	 7.500000e-01
-1	 0	 1.125000e+00
-1	 0	 1.500000e+00
-1	 0	 1.875000e+00
-1	 0	 2.250000e+00
-1	 0	 2.625000e+00
-1	 0	 3
-9.875000e-01	 0	 0
-9.875000e-01	 0	 1.500000e+00
-9.875000e-01	 0	 3
-9.875000e-01	 0	 2.250000e+00
-9.875000e-01	 0	 7.500000e-01
-9.833054e-01	 -1.819631e-01	 7.500000e-01
-9.833054e-01	 -1.819631e-01	 0
-9.833054e-01	 -1.819631e-01	 1.500000e+00
-9.833054e-01	 -1.819631e-01	 3.000000e+00
-9.833054e-01	 1.819631e-01	 2.250000e+00
-9.833054e-01	 1.819631e-01	 0
-9.833054e-01	 1.819631e-01	 1.500000e+00
-9.833054e-01	 1.819631e-01	 3.000000e+00
-9.833054e-01	 1.819631e-01	 7.500000e-01
-9.833054e-01	 -1.819631e-01	 2.250000e+00
-9.750000e-01	 0	 7.500000e-01
-9.750000e-01	 0	 1.125000e+00
-9.750000e-01	 0	 0
-9.750000e-01	 0	 3.750000e-01
-9.750000e-01	 0	 1.875000e+00
-9.750000e-01	 0	 2.625000e+00
-9.750000e-01	 0	 3
-9.750000e-01	 0	 1.500000e+00
-9.750000e-01	 0	 2.250000e+00
-9.625000e-01	 0	 1.500000e+00
-9.625000e-01	 0	 2.250000e+00
-9.625000e-01	 0	 0
-9.625000e-01	 0	 7.500000e-01
-9.625000e-01	 0	 3
-9.587227e-01	 -1.774140e-01	 0
-9.587227e-01	 -1.774140e-01	 3.000000e+00
-9.587227e-01	 -1.774140e-01	 1.500000e+00
-9.587227e-01	 1.774140e-01	 0
-9.587227e-01	 1.774140e-01	 3.000000e+00
-9.587227e-01	 1.774140e-01	 1.500000e+00
-9.587227e-01	 1.774140e-01	 7.500000e-01
-9.587227e-01	 -1.774140e-01	 7.500000e-01
-9.587227e-01	 -1.774140e-01	 2.250000e+00
-9.587227e-01	 1.774140e-01	 2.250000e+00
-9.500000e-01	 0	 0
-9.500000e-01	 0	 3.750000e-01
-9.500000e-01	 0	 1.125000e+00
-9.500000e-01	 0	 1.500000e+00
-9.500000e-01	 0	 1.875000e+00
-9.500000e-01	 0	 2.250000e+00
-9.500000e-01	 0	 2.625000e+00
-9.500000e-01	 0	 3
-9.500000e-01	 0	 7.500000e-01
-9.341401e-01	 -1.728649e-01	 1.500000e+00
-9.341401e-01	 -1.728649e-01	 0
-9.341401e-01	 -1.728649e-01	 3.000000e+00
-9.341401e-01	 1.728649e-01	 2.250000e+00
-9.341401e-01	 1.728649e-01	 0
-9.341401e-01	 1.728649e-01	 1.500000e+00
-9.341401e-01	 1.728649e-01	 3.000000e+00
-9.341401e-01	 -1.728649e-01	 7.500000e-01
-9.341401e-01	 -1.728649e-01	 2.250000e+00
-9.341401e-01	 1.728649e-01	 7.500000e-01
-9.297883e-01	 -3.680947e-01	 1.125000e+00
-9.297883e-01	 -3.680947e-01	 0
-9.297883e-01	 -3.680947e-01	 7.500000e-01
-9.297883e-01	 -3.680947e-01	 1.500000e+00
-9.297883e-01	 -3.680947e-01	 1.875000e+00
-9.297883e-01	 -3.680947e-01	 2.250000e+00
-9.297883e-01	 -3.680947e-01	 2.625000e+00
-9.297883e-01	 -3.680947e-01	 3.000000e+00
-9.297883e-01	 -3.680947e-01	 3.750000e-01
-9.297883e-01	 3.680947e-01	 3.750000e-01
-9.297883e-01	 3.680947e-01	 2.250000e+00
-9.297883e-01	 3.680947e-01	 2.625000e+00
-9.297883e-01	 3.680947e-01	 0
-9.297883e-01	 3.680947e-01	 7.500000e-01
-9.297883e-01	 3.680947e-01	 1.500000e+00
-9.297883e-01	 3.680947e-01	 1.875000e+00
-9.297883e-01	 3.680947e-01	 3.000000e+00
-9.297883e-01	 3.680947e-01	 1.125000e+00
-9.181659e-01	 3.634935e-01	 7.500000e-01
-9.181659e-01	 -3.634935e-01	 0
-9.181659e-01	 -3.634935e-01	 7.500000e-01
-9.181659e-01	 -3.634935e-01	 2.250000e+00
-9.181659e-01	 -3.634935e-01	 3
-9.181659e-01	 3.634935e-01	 0
-9.181659e-01	 3.634935e-01	 2.250000e+00
-9.181659e-01	 3.634935e-01	 3
-9.181659e-01	 -3.634935e-01	 1.500000e+00
-9.181659e-01	 3.634935e-01	 1.500000e+00
-9.065436e-01	 -3.588923e-01	 1.125000e+00
-9.065436e-01	 -3.588923e-01	 2.625000e+00
-9.065436e-01	 -3.588923e-01	 0
-9.065436e-01	 -3.588923e-01	 3.750000e-01
-9.065436e-01	 -3.588923e-01	 1.500000e+00
-9.065436e-01	 -3.588923e-01	 3
-9.065436e-01	 3.588923e-01	 2.625000e+00
-9.065436e-01	 3.588923e-01	 1.125000e+00
-9.065436e-01	 3.588923e-01	 0
-9.065436e-01	 3.588923e-01	 3.750000e-01
-9.065436e-01	 3.588923e-01	 3
-9.065436e-01	 -3.588923e-01	 7.500000e-01
-9.065436e-01	 -3.588923e-01	 1.875000e+00
-9.065436e-01	 3.588923e-01	 1.875000e+00
-9.065436e-01	 3.588923e-01	 1.500000e+00
-9.065436e-01	 -3.588923e-01	 2.250000e+00
-9.065436e-01	 3.588923e-01	 7.500000e-01
-9.065436e-01	 3.588923e-01	 2.250000e+00
-8.949212e-01	 3.542912e-01	 1.500000e+00
-8.949212e-01	 -3.542912e-01	 1.500000e+00
-8.949212e-01	 -3.542912e-01	 0
-8.949212e-01	 -3.542912e-01	 3.000000e+00
-8.949212e-01	 3.542912e-01	 0
-8.949212e-01	 3.542912e-01	 3.000000e+00
-8.949212e-01	 -3.542912e-01	 2.250000e+00
-8.949212e-01	 -3.542912e-01	 7.500000e-01
-8.949212e-01	 3.542912e-01	 2.250000e+00
-8.949212e-01	 3.542912e-01	 7.500000e-01
-8.832989e-01	 -3.496900e-01	 1.125000e+00
-8.832989e-01	 -3.496900e-01	 1.875000e+00
-8.832989e-01	 -3.496900e-01	 2.625000e+00
-8.832989e-01	 -3.496900e-01	 2.250000e+00
-8.832989e-01	 3.496900e-01	 1.125000e+00
-8.832989e-01	 -3.496900e-01	 0
-8.832989e-01	 -3.496900e-01	 3.000000e+00
-8.832989e-01	 -3.496900e-01	 3.750000e-01
-8.832989e-01	 -3.496900e-01	 7.500000e-01
-8.832989e-01	 3.496900e-01	 3.750000e-01
-8.832989e-01	 3.496900e-01	 7.500000e-01
-8.832989e-01	 3.496900e-01	 2.250000e+00
-8.832989e-01	 3.496900e-01	 2.625000e+00
-8.832989e-01	 3.496900e-01	 0
-8.832989e-01	 3.496900e-01	 1.875000e+00
-8.832989e-01	 3.496900e-01	 3.000000e+00
-8.832989e-01	 -3.496900e-01	 1.500000e+00
-8.832989e-01	 3.496900e-01	 1.500000e+00
-8.369955e-01	 -5.472098e-01	 0
-8.369955e-01	 -5.472098e-01	 7.500000e-01
-8.369955e-01	 -5.472098e-01	 1.500000e+00
-8.369955e-01	 -5.472098e-01	 2.250000e+00
-8.369955e-01	 -5.472098e-01	 3
-8.369955e-01	 5.472098e-01	 0
-8.369955e-01	 5.472098e-01	 7.500000e-01
-8.369955e-01	 5.472098e-01	 1.500000e+00
-8.369955e-01	 5.472098e-01	 2.250000e+00
-8.369955e-01	 5.472098e-01	 3
-8.160706e-01	 -5.335295e-01	 7.500000e-01
-8.160706e-01	 5.335295e-01	 7.500000e-01
-8.160706e-01	 -5.335295e-01	 1.500000e+00
-8.160706e-01	 -5.335295e-01	 2.250000e+00
-8.160706e-01	 5.335295e-01	 1.500000e+00
-8.160706e-01	 5.335295e-01	 2.250000e+00
-8.160706e-01	 -5.335295e-01	 0
-8.160706e-01	 -5.335295e-01	 3.000000e+00
-8.160706e-01	 5.335295e-01	 0
-8.160706e-01	 5.335295e-01	 3.000000e+00
-7.951457e-01	 -5.198493e-01	 7.500000e-01
-7.951457e-01	 5.198493e-01	 7.500000e-01
-7.951457e-01	 -5.198493e-01	 0
-7.951457e-01	 -5.198493e-01	 1.500000e+00
-7.951457e-01	 -5.198493e-01	 2.250000e+00
-7.951457e-01	 -5.198493e-01	 3
-7.951457e-01	 5.198493e-01	 0
-7.951457e-01	 5.198493e-01	 1.500000e+00
-7.951457e-01	 5.198493e-01	 2.250000e+00
-7.951457e-01	 5.198493e-01	 3
-7.071068e-01	 -7.071068e-01	 0
-7.071068e-01	 -7.071068e-01	 3.750000e-01
-7.071068e-01	 -7.071068e-01	 7.500000e-01
-7.071068e-01	 -7.071068e-01	 1.125000e+00
-7.071068e-01	 -7.071068e-01	 1.500000e+00
-7.071068e-01	 -7.071068e-01	 1.875000e+00
-7.071068e-01	 -7.071068e-01	 2.250000e+00
-7.071068e-01	 -7.071068e-01	 2.625000e+00
-7.071068e-01	 -7.071068e-01	 3.000000e+00
-7.071068e-01	 7.071068e-01	 0
-7.071068e-01	 7.071068e-01	 3.750000e-01
-7.071068e-01	 7.071068e-01	 7.500000e-01
-7.071068e-01	 7.071068e-01	 1.125000e+00
-7.071068e-01	 7.071068e-01	 1.500000e+00
-7.071068e-01	 7.071068e-01	 1.875000e+00
-7.071068e-01	 7.071068e-01	 2.250000e+00
-7.071068e-01	 7.071068e-01	 2.625000e+00
-7.071068e-01	 7.071068e-01	 3.000000e+00
-6.982679e-01	 -6.982679e-01	 7.500000e-01
-6.982679e-01	 6.982679e-01	 7.500000e-01
-6.982679e-01	 -6.982679e-01	 0
-6.982679e-01	 -6.982679e-01	 2.250000e+00
-6.982679e-01	 -6.982679e-01	 3.000000e+00
-6.982679e-01	 6.982679e-01	 0
-6.982679e-01	 6.982679e-01	 2.250000e+00
-6.982679e-01	 6.982679e-01	 3.000000e+00
-6.982679e-01	 -6.982679e-01	 1.500000e+00
-6.982679e-01	 6.982679e-01	 1.500000e+00
-6.894291e-01	 -6.894291e-01	 3.750000e-01
-6.894291e-01	 -6.894291e-01	 2.625000e+00
-6.894291e-01	 -6.894291e-01	 0
-6.894291e-01	 -6.894291e-01	 1.500000e+00
-6.894291e-01	 -6.894291e-01	 2.250000e+00
-6.894291e-01	 -6.894291e-01	 3.000000e+00
-6.894291e-01	 6.894291e-01	 3.750000e-01
-6.894291e-01	 6.894291e-01	 2.625000e+00
-6.894291e-01	 -6.894291e-01	 1.875000e+00
-6.894291e-01	 6.894291e-01	 1.875000e+00
-6.894291e-01	 -6.894291e-01	 7.500000e-01
-6.894291e-01	 -6.894291e-01	 1.125000e+00
-6.894291e-01	 6.894291e-01	 0
-6.894291e-01	 6.894291e-01	 1.500000e+00
-6.894291e-01	 6.894291e-01	 2.250000e+00
-6.894291e-01	 6.894291e-01	 3.000000e+00
-6.894291e-01	 6.894291e-01	 7.500000e-01
-6.894291e-01	 6.894291e-01	 1.125000e+00
-6.805903e-01	 6.805903e-01	 7.500000e-01
-6.805903e-01	 -6.805903e-01	 7.500000e-01
-6.805903e-01	 -6.805903e-01	 0
-6.805903e-01	 -6.805903e-01	 1.500000e+00
-6.805903e-01	 -6.805903e-01	 3.000000e+00
-6.805903e-01	 6.805903e-01	 0
-6.805903e-01	 6.805903e-01	 1.500000e+00
-6.805903e-01	 6.805903e-01	 3.000000e+00
-6.805903e-01	 6.805903e-01	 2.250000e+00
-6.805903e-01	 -6.805903e-01	 2.250000e+00
-6.717514e-01	 -6.717514e-01	 2.625000e+00
-6.717514e-01	 6.717514e-01	 2.625000e+00
-6.717514e-01	 -6.717514e-01	 0
-6.717514e-01	 -6.717514e-01	 3.750000e-01
-6.717514e-01	 -6.717514e-01	 7.500000e-01
-6.717514e-01	 -6.717514e-01	 1.125000e+00
-6.717514e-01	 -6.717514e-01	 1.875000e+00
-6.717514e-01	 -6.717514e-01	 3.000000e+00
-6.717514e-01	 -6.717514e-01	 2.250000e+00
-6.717514e-01	 6.717514e-01	 1.500000e+00
-6.717514e-01	 6.717514e-01	 0
-6.717514e-01	 6.717514e-01	 3.750000e-01
-6.717514e-01	 6.717514e-01	 7.500000e-01
-6.717514e-01	 6.717514e-01	 1.125000e+00
-6.717514e-01	 6.717514e-01	 1.875000e+00
-6.717514e-01	 6.717514e-01	 3.000000e+00
-6.717514e-01	 -6.717514e-01	 1.500000e+00
-6.717514e-01	 6.717514e-01	 2.250000e+00
-5.472098e-01	 -8.369955e-01	 0
-5.472098e-01	 -8.369955e-01	 7.500000e-01
-5.472098e-01	 -8.369955e-01	 1.500000e+00
-5.472098e-01	 -8.369955e-01	 2.250000e+00
-5.472098e-01	 -8.369955e-01	 3
-5.472098e-01	 8.369955e-01	 0
-5.472098e-01	 8.369955e-01	 7.500000e-01
-5.472098e-01	 8.369955e-01	 1.500000e+00
-5.472098e-01	 8.369955e-01	 2.250000e+00
-5.472098e-01	 8.369955e-01	 3
-5.335295e-01	 -8.160706e-01	 1.500000e+00
-5.335295e-01	 -8.160706e-01	 2.250000e+00
-5.335295e-01	 8.160706e-01	 0
-5.335295e-01	 8.160706e-01	 3.000000e+00
[...]
POINT_DATA 832
VECTORS displacement float
0	 0	 1.085352e-07
1.468548e-07	 -2.305125e-07	 9.964701e-08
2.704652e-07	 -4.262353e-07	 7.674597e-08
3.545389e-07	 -5.565063e-07	 4.127514e-08
3.824955e-07	 -6.027878e-07	 -7.682382e-16
3.545389e-07	 -5.565063e-07	 -4.127514e-08
2.704652e-07	 -4.262353e-07	 -7.674597e-08
1.468548e-07	 -2.305125e-07	 -9.964700e-08
0	 0	 -1.085352e-07
0	 0	 1.032667e-07
3.832160e-07	 -6.033000e-07	 -6.239402e-16
0	 0	 -1.032667e-07
2.709746e-07	 -4.265975e-07	 -7.302060e-08
2.709746e-07	 -4.265975e-07	 7.302060e-08
2.652801e-07	 -4.247093e-07	 5.227481e-08
0	 0	 7.392774e-08
3.751627e-07	 -6.006296e-07	 -1.294001e-15
0	 0	 -7.392774e-08
2.745132e-07	 -4.293800e-07	 -9.874251e-08
0	 0	 1.396430e-07
3.882203e-07	 -6.072350e-07	 -1.118702e-16
0	 0	 -1.396430e-07
2.745132e-07	 -4.293800e-07	 9.874251e-08
2.652801e-07	 -4.247093e-07	 -5.227481e-08
2.714642e-07	 -4.269684e-07	 6.929121e-08
3.558021e-07	 -5.575069e-07	 3.752795e-08
0	 0	 9.799257e-08
1.473781e-07	 -2.309269e-07	 9.060049e-08
3.558021e-07	 -5.575069e-07	 -3.752795e-08
1.473780e-07	 -2.309269e-07	 -9.060049e-08
0	 0	 -9.799256e-08
3.839083e-07	 -6.038244e-07	 -4.801188e-16
2.714641e-07	 -4.269684e-07	 -6.929121e-08
3.845884e-07	 -6.043617e-07	 -3.360225e-16
2.719450e-07	 -4.273483e-07	 -6.555698e-08
0	 0	 9.271157e-08
2.719450e-07	 -4.273483e-07	 6.555698e-08
0	 0	 -9.271157e-08
0	 0	 6.682078e-08
0	 0	 -6.682078e-08
3.762740e-07	 -6.014387e-07	 -8.213219e-16
0	 0	 1.260530e-07
0	 0	 -1.260530e-07
3.898646e-07	 -6.082182e-07	 -7.520239e-17
2.756759e-07	 -4.300752e-07	 8.913296e-08
2.660659e-07	 -4.252814e-07	 4.724942e-08
2.660659e-07	 -4.252814e-07	 -4.724942e-08
2.756759e-07	 -4.300752e-07	 -8.913296e-08
0	 0	 8.741797e-08
1.478589e-07	 -2.313626e-07	 8.152030e-08
3.569630e-07	 -5.585587e-07	 3.376681e-08
3.852394e-07	 -6.049174e-07	 -1.910063e-16
3.569630e-07	 -5.585587e-07	 -3.376681e-08
2.724054e-07	 -4.277412e-07	 -6.181384e-08
1.478589e-07	 -2.313626e-07	 -8.152030e-08
0	 0	 -8.741797e-08
2.724054e-07	 -4.277412e-07	 6.181384e-08
3.773489e-07	 -6.023211e-07	 -3.478543e-16
0	 0	 5.969373e-08
0	 0	 -5.969373e-08
2.767475e-07	 -4.307896e-07	 -7.949431e-08
0	 0	 1.124219e-07
3.913801e-07	 -6.092285e-07	 -3.856002e-17
0	 0	 -1.124219e-07
2.668260e-07	 -4.259054e-07	 4.220984e-08
2.668260e-07	 -4.259054e-07	 -4.220984e-08
2.767475e-07	 -4.307896e-07	 7.949431e-08
3.396974e-07	 -5.548513e-07	 1.312749e-08
0	 0	 3.447531e-08
2.598699e-07	 -4.250851e-07	 2.437773e-08
3.675115e-07	 -6.011611e-07	 -1.459407e-15
3.396974e-07	 -5.548513e-07	 -1.312749e-08
2.598699e-07	 -4.250851e-07	 -2.437773e-08
1.407073e-07	 -2.298269e-07	 -3.169256e-08
0	 0	 -3.447531e-08
1.407073e-07	 -2.298269e-07	 3.169256e-08
1.499936e-07	 -2.348476e-07	 1.534284e-07
2.758158e-07	 -4.336403e-07	 -1.181869e-07
1.499936e-07	 -2.348476e-07	 -1.534284e-07
0	 0	 1.671415e-07
2.758158e-07	 -4.336403e-07	 1.181869e-07
3.900624e-07	 -6.132600e-07	 5.869029e-16
3.621167e-07	 -5.669721e-07	 -6.355211e-08
0	 0	 -1.671415e-07
3.621167e-07	 -5.669721e-07	 6.355211e-08
2.765041e-07	 -4.340255e-07	 1.124740e-07
0	 0	 3.278475e-08
2.601476e-07	 -4.253522e-07	 2.318232e-08
2.601476e-07	 -4.253522e-07	 -2.318232e-08
0	 0	 -3.278475e-08
0	 0	 1.590623e-07
2.765041e-07	 -4.340255e-07	 -1.124740e-07
0	 0	 -1.590623e-07
3.679043e-07	 -6.015388e-07	 -1.185344e-15
3.910359e-07	 -6.138047e-07	 4.734513e-16
3.404311e-07	 -5.556224e-07	 1.192527e-08
1.410112e-07	 -2.301464e-07	 -2.879015e-08
0	 0	 3.109221e-08
1.410112e-07	 -2.301463e-07	 2.879015e-08
3.682976e-07	 -6.019358e-07	 -9.124061e-16
0	 0	 -3.109220e-08
1.506909e-07	 -2.352675e-07	 -1.395557e-07
3.638001e-07	 -5.679860e-07	 5.780585e-08
0	 0	 1.509741e-07
1.506909e-07	 -2.352675e-07	 1.395557e-07
0	 0	 -1.509741e-07
2.604257e-07	 -4.256329e-07	 2.198551e-08
3.404311e-07	 -5.556224e-07	 -1.192527e-08
3.638001e-07	 -5.679860e-07	 -5.780585e-08
3.919649e-07	 -6.143463e-07	 3.605632e-16
2.604257e-07	 -4.256329e-07	 -2.198551e-08
2.771610e-07	 -4.344084e-07	 1.067548e-07
2.771610e-07	 -4.344084e-07	 -1.067548e-07
3.928731e-07	 -6.148893e-07	 2.476443e-16
3.686911e-07	 -6.023463e-07	 -6.390968e-16
0	 0	 2.939676e-08
0	 0	 -2.939676e-08
0	 0	 1.428762e-07
0	 0	 -1.428762e-07
2.607040e-07	 -4.259232e-07	 -2.078665e-08
2.607040e-07	 -4.259232e-07	 2.078665e-08
2.778033e-07	 -4.347924e-07	 -1.010287e-07
2.778032e-07	 -4.347924e-07	 1.010287e-07
3.411593e-07	 -5.564580e-07	 1.071798e-08
3.411593e-07	 -5.564580e-07	 -1.071798e-08
1.413128e-07	 -2.304925e-07	 -2.587548e-08
2.609835e-07	 -4.262283e-07	 -1.958497e-08
3.653249e-07	 -5.689785e-07	 5.203864e-08
0	 0	 2.769733e-08
0	 0	 -2.769733e-08
1.413128e-07	 -2.304925e-07	 2.587548e-08
2.609835e-07	 -4.262283e-07	 1.958497e-08
1.513225e-07	 -2.356786e-07	 1.256324e-07
2.784139e-07	 -4.351724e-07	 9.528904e-08
2.784139e-07	 -4.351724e-07	 -9.528904e-08
1.513225e-07	 -2.356786e-07	 -1.256324e-07
0	 0	 1.347590e-07
3.653249e-07	 -5.689785e-07	 -5.203864e-08
0	 0	 -1.347590e-07
3.690864e-07	 -6.027778e-07	 -3.638841e-16
3.937366e-07	 -6.154267e-07	 1.339312e-16
0	 0	 -7.937159e-09
2.551062e-07	 -4.271634e-07	 -5.612420e-09
3.607746e-07	 -6.041002e-07	 -1.261172e-15
2.551062e-07	 -4.271634e-07	 5.612420e-09
0	 0	 7.937161e-09
0	 0	 1.893832e-07
2.751778e-07	 -4.380279e-07	 1.339142e-07
3.891602e-07	 -6.194650e-07	 1.129138e-15
2.751778e-07	 -4.380279e-07	 -1.339142e-07
0	 0	 -1.893832e-07
2.553884e-07	 -4.277272e-07	 -5.039639e-09
2.765350e-07	 -4.390930e-07	 1.209573e-07
3.611737e-07	 -6.048976e-07	 -8.074269e-16
2.553884e-07	 -4.277272e-07	 5.039639e-09
3.910796e-07	 -6.209713e-07	 7.163136e-16
2.765350e-07	 -4.390930e-07	 -1.209573e-07
0	 0	 -7.127125e-09
0	 0	 7.127127e-09
0	 0	 1.710595e-07
0	 0	 -1.710595e-07
2.557041e-07	 -4.283270e-07	 -4.464782e-09
2.778015e-07	 -4.401224e-07	 1.079615e-07
0	 0	 -6.314156e-09
3.616201e-07	 -6.057458e-07	 -3.533489e-16
2.557040e-07	 -4.283270e-07	 4.464782e-09
0	 0	 6.314156e-09
0	 0	 1.526806e-07
3.928706e-07	 -6.224271e-07	 3.030987e-16
2.778015e-07	 -4.401224e-07	 -1.079615e-07
0	 0	 -1.526806e-07
0	 0	 -5.077904e-08
1.360822e-07	 -2.331677e-07	 -4.662757e-08
2.519834e-07	 -4.307913e-07	 -3.590621e-08
3.285314e-07	 -5.629167e-07	 -1.931377e-08
3.563583e-07	 -6.092308e-07	 -5.136763e-16
3.285314e-07	 -5.629167e-07	 1.931377e-08
2.519834e-07	 -4.307913e-07	 3.590621e-08
1.360821e-07	 -2.331677e-07	 4.662757e-08
0	 0	 5.077905e-08
0	 0	 2.037858e-07
1.482997e-07	 -2.399487e-07	 1.871267e-07
2.728112e-07	 -4.422763e-07	 1.440983e-07
3.580271e-07	 -5.792874e-07	 7.751040e-08
3.858133e-07	 -6.254731e-07	 1.202215e-15
3.580271e-07	 -5.792874e-07	 -7.751040e-08
2.728112e-07	 -4.422763e-07	 -1.440983e-07
1.482997e-07	 -2.399487e-07	 -1.871267e-07
0	 0	 -2.037858e-07
2.520158e-07	 -4.311595e-07	 -3.416662e-08
2.734474e-07	 -4.429816e-07	 1.371411e-07
0	 0	 -4.831890e-08
2.520158e-07	 -4.311595e-07	 3.416662e-08
0	 0	 4.831890e-08
0	 0	 1.939468e-07
2.734474e-07	 -4.429817e-07	 -1.371411e-07
0	 0	 -1.939468e-07
3.564042e-07	 -6.097516e-07	 -4.185142e-16
3.867130e-07	 -6.264707e-07	 9.720633e-16
1.361472e-07	 -2.335778e-07	 -4.240328e-08
1.361472e-07	 -2.335778e-07	 4.240328e-08
0	 0	 -4.585601e-08
3.564717e-07	 -6.102763e-07	 -3.240350e-16
2.520635e-07	 -4.315305e-07	 3.242509e-08
0	 0	 4.585601e-08
1.489479e-07	 -2.406819e-07	 1.702335e-07
1.489479e-07	 -2.406820e-07	 -1.702335e-07
3.286884e-07	 -5.639068e-07	 1.756401e-08
3.595920e-07	 -5.810576e-07	 -7.051303e-08
2.520636e-07	 -4.315305e-07	 -3.242509e-08
3.286884e-07	 -5.639068e-07	 -1.756401e-08
0	 0	 1.840964e-07
3.875763e-07	 -6.274381e-07	 7.430717e-16
2.740578e-07	 -4.436658e-07	 -1.301758e-07
0	 0	 -1.840964e-07
2.740578e-07	 -4.436658e-07	 1.301758e-07
3.595920e-07	 -5.810576e-07	 7.051304e-08
2.746545e-07	 -4.443398e-07	 1.232020e-07
2.521210e-07	 -4.319051e-07	 -3.068142e-08
0	 0	 -4.339007e-08
3.565529e-07	 -6.108061e-07	 -2.295164e-16
0	 0	 4.339007e-08
0	 0	 1.742340e-07
3.884202e-07	 -6.283914e-07	 5.138863e-16
0	 0	 -1.742340e-07
2.746545e-07	 -4.443398e-07	 -1.232020e-07
2.521210e-07	 -4.319051e-07	 3.068142e-08
1.362430e-07	 -2.339911e-07	 3.816339e-08
1.495388e-07	 -2.413667e-07	 -1.532778e-07
0	 0	 -4.091827e-08
1.362430e-07	 -2.339911e-07	 -3.816339e-08
2.521943e-07	 -4.322829e-07	 -2.893359e-08
3.289196e-07	 -5.649046e-07	 -1.580780e-08
3.289196e-07	 -5.649046e-07	 1.580779e-08
0	 0	 4.091827e-08
2.521942e-07	 -4.322829e-07	 2.893359e-08
3.892276e-07	 -6.293147e-07	 2.829333e-16
0	 0	 1.643481e-07
1.495388e-07	 -2.413667e-07	 1.532778e-07
2.752255e-07	 -4.449927e-07	 1.162117e-07
3.610186e-07	 -5.827107e-07	 6.348976e-08
3.610187e-07	 -5.827107e-07	 -6.348976e-08
0	 0	 -1.643481e-07
3.566565e-07	 -6.113403e-07	 -1.340816e-16
2.752255e-07	 -4.449927e-07	 -1.162117e-07
0	 0	 -9.155445e-08
2.504353e-07	 -4.352792e-07	 -6.473878e-08
3.541690e-07	 -6.155778e-07	 4.283281e-16
2.504353e-07	 -4.352792e-07	 6.473878e-08
0	 0	 9.155445e-08
0	 0	 2.100418e-07
2.694522e-07	 -4.460330e-07	 1.485220e-07
3.810629e-07	 -6.307860e-07	 8.914264e-16
2.694522e-07	 -4.460330e-07	 -1.485220e-07
0	 0	 -2.100418e-07
3.541761e-07	 -6.169849e-07	 2.665447e-16
2.504403e-07	 -4.362742e-07	 5.849113e-08
0	 0	 1.897506e-07
0	 0	 -1.897506e-07
3.824487e-07	 -6.331012e-07	 5.592509e-16
2.704321e-07	 -4.476701e-07	 -1.341739e-07
2.504403e-07	 -4.362742e-07	 -5.849113e-08
0	 0	 -8.271895e-08
0	 0	 8.271895e-08
2.704320e-07	 -4.476701e-07	 1.341739e-07
2.713533e-07	 -4.492224e-07	 1.197828e-07
2.505064e-07	 -4.372558e-07	 -5.222519e-08
0	 0	 -7.385757e-08
3.542695e-07	 -6.183731e-07	 1.044437e-16
2.505064e-07	 -4.372558e-07	 5.222519e-08
0	 0	 7.385757e-08
0	 0	 1.693984e-07
3.837515e-07	 -6.352964e-07	 2.268434e-16
2.713533e-07	 -4.492224e-07	 -1.197828e-07
0	 0	 -1.693984e-07
3.269048e-07	 -5.763254e-07	 -4.854406e-08
3.473510e-07	 -5.882816e-07	 7.880379e-08
0	 0	 -1.276140e-07
2.508358e-07	 -4.402504e-07	 -9.023675e-08
3.547354e-07	 -6.226081e-07	 1.285116e-15
3.269048e-07	 -5.763254e-07	 4.854406e-08
0	 0	 1.276140e-07
0	 0	 2.072260e-07
2.652930e-07	 -4.486833e-07	 1.465309e-07
3.751809e-07	 -6.345341e-07	 1.132092e-16
3.473510e-07	 -5.882816e-07	 -7.880379e-08
2.652930e-07	 -4.486833e-07	 -1.465309e-07
1.438775e-07	 -2.436742e-07	 -1.902492e-07
0	 0	 -2.072260e-07
1.354084e-07	 -2.387218e-07	 -1.171957e-07
2.508358e-07	 -4.402504e-07	 9.023675e-08
1.354084e-07	 -2.387218e-07	 1.171957e-07
1.438775e-07	 -2.436742e-07	 1.902492e-07
3.547876e-07	 -6.235350e-07	 1.036934e-15
3.756462e-07	 -6.358212e-07	 8.793562e-17
2.508727e-07	 -4.409059e-07	 -8.585438e-08
0	 0	 -1.214164e-07
2.508727e-07	 -4.409059e-07	 8.585438e-08
0	 0	 1.214164e-07
0	 0	 1.972093e-07
2.656220e-07	 -4.495935e-07	 1.394481e-07
2.656220e-07	 -4.495935e-07	 -1.394481e-07
0	 0	 -1.972093e-07
2.509267e-07	 -4.415450e-07	 8.146709e-08
2.659413e-07	 -4.504689e-07	 -1.323573e-07
3.481807e-07	 -5.905351e-07	 7.167973e-08
1.442212e-07	 -2.446077e-07	 -1.730502e-07
0	 0	 -1.152119e-07
1.354815e-07	 -2.394096e-07	 -1.065544e-07
0	 0	 1.152119e-07
3.548639e-07	 -6.244389e-07	 7.895898e-16
0	 0	 1.871815e-07
1.442212e-07	 -2.446077e-07	 1.730502e-07
3.760978e-07	 -6.370592e-07	 6.315468e-17
0	 0	 -1.871815e-07
3.270812e-07	 -5.779860e-07	 -4.413628e-08
3.270812e-07	 -5.779860e-07	 4.413628e-08
2.509267e-07	 -4.415450e-07	 -8.146709e-08
2.659413e-07	 -4.504689e-07	 1.323573e-07
3.481807e-07	 -5.905351e-07	 -7.167973e-08
1.354815e-07	 -2.394096e-07	 1.065544e-07
3.549555e-07	 -6.253323e-07	 5.417326e-16
2.509914e-07	 -4.421767e-07	 7.707386e-08
2.662565e-07	 -4.513282e-07	 -1.252577e-07
0	 0	 1.771412e-07
0	 0	 -1.771412e-07
3.765435e-07	 -6.382744e-07	 3.848916e-17
0	 0	 -1.089989e-07
0	 0	 1.089989e-07
2.509914e-07	 -4.421767e-07	 -7.707386e-08
2.662565e-07	 -4.513282e-07	 1.252577e-07
3.273434e-07	 -5.795561e-07	 -3.971166e-08
0	 0	 -1.027712e-07
3.273434e-07	 -5.795561e-07	 3.971166e-08
0	 0	 1.027712e-07
3.550734e-07	 -6.262034e-07	 2.922389e-16
0	 0	 1.670770e-07
0	 0	 -1.670770e-07
3.489523e-07	 -5.926091e-07	 6.452932e-08
3.489524e-07	 -5.926091e-07	 -6.452932e-08
1.445408e-07	 -2.454667e-07	 -1.557876e-07
1.355901e-07	 -2.400600e-07	 -9.587242e-08
2.510748e-07	 -4.427927e-07	 -7.267019e-08
2.510748e-07	 -4.427927e-07	 7.267019e-08
1.355901e-07	 -2.400600e-07	 9.587242e-08
3.769724e-07	 -6.394407e-07	 1.335574e-17
1.445408e-07	 -2.454667e-07	 1.557876e-07
2.665598e-07	 -4.521529e-07	 -1.181413e-07
2.665598e-07	 -4.521529e-07	 1.181413e-07
2.528985e-07	 -4.448095e-07	 -1.113935e-07
2.606062e-07	 -4.496986e-07	 1.392661e-07
0	 0	 -1.575342e-07
3.576525e-07	 -6.290556e-07	 1.831258e-15
0	 0	 1.575342e-07
0	 0	 1.969520e-07
3.685528e-07	 -6.359699e-07	 -7.178951e-16
0	 0	 -1.969520e-07
2.528985e-07	 -4.448094e-07	 1.113935e-07
2.606062e-07	 -4.496986e-07	 -1.392661e-07
2.530814e-07	 -4.462960e-07	 -1.006362e-07
0	 0	 -1.423210e-07
0	 0	 1.423210e-07
2.611066e-07	 -4.514258e-07	 1.257703e-07
2.611066e-07	 -4.514258e-07	 -1.257703e-07
0	 0	 1.778661e-07
0	 0	 -1.778661e-07
2.530814e-07	 -4.462960e-07	 1.006362e-07
3.692606e-07	 -6.384125e-07	 -4.571583e-16
3.579112e-07	 -6.311578e-07	 1.143618e-15
3.699615e-07	 -6.406964e-07	 -1.964286e-16
0	 0	 -1.270632e-07
3.582369e-07	 -6.331544e-07	 4.552701e-16
0	 0	 1.270632e-07
0	 0	 1.587229e-07
0	 0	 -1.587229e-07
2.533117e-07	 -4.477078e-07	 8.984728e-08
2.533117e-07	 -4.477078e-07	 -8.984728e-08
2.616023e-07	 -4.530408e-07	 1.122341e-07
2.616023e-07	 -4.530407e-07	 -1.122341e-07
0	 0	 -1.801181e-07
1.386110e-07	 -2.432383e-07	 -1.653684e-07
2.563010e-07	 -4.479851e-07	 -1.273627e-07
3.346365e-07	 -5.872291e-07	 -6.849784e-08
3.624643e-07	 -6.335466e-07	 1.708962e-15
3.346366e-07	 -5.872291e-07	 6.849784e-08
2.563010e-07	 -4.479851e-07	 1.273627e-07
1.386110e-07	 -2.432383e-07	 1.653684e-07
0	 0	 1.801181e-07
0	 0	 -1.713914e-07
3.627366e-07	 -6.347392e-07	 1.376815e-15
0	 0	 1.713914e-07
2.564935e-07	 -4.488284e-07	 1.211920e-07
2.564935e-07	 -4.488284e-07	 -1.211920e-07
2.566913e-07	 -4.496399e-07	 -1.150145e-07
3.351718e-07	 -5.893225e-07	 -6.229127e-08
0	 0	 -1.626551e-07
1.388327e-07	 -2.441054e-07	 -1.503844e-07
3.351718e-07	 -5.893225e-07	 6.229127e-08
1.388327e-07	 -2.441054e-07	 1.503844e-07
0	 0	 1.626550e-07
3.630163e-07	 -6.358868e-07	 1.046448e-15
2.566913e-07	 -4.496399e-07	 1.150145e-07
3.633042e-07	 -6.370149e-07	 7.154367e-16
2.568949e-07	 -4.504375e-07	 1.088290e-07
0	 0	 -1.539074e-07
2.568948e-07	 -4.504376e-07	 -1.088290e-07
0	 0	 1.539074e-07
0	 0	 -1.451390e-07
1.390674e-07	 -2.449042e-07	 -1.353446e-07
3.357383e-07	 -5.912511e-07	 -5.606157e-08
3.636029e-07	 -6.380967e-07	 3.818120e-16
3.357383e-07	 -5.912511e-07	 5.606157e-08
2.571060e-07	 -4.512025e-07	 1.026288e-07
1.390674e-07	 -2.449042e-07	 1.353446e-07
0	 0	 1.451390e-07
2.571060e-07	 -4.512025e-07	 -1.026288e-07
2.571060e-07	 -4.512026e-07	 1.026288e-07
0	 0	 1.451390e-07
1.390674e-07	 -2.449043e-07	 1.353446e-07
3.357383e-07	 -5.912512e-07	 5.606158e-08
3.636028e-07	 -6.380968e-07	 -2.786412e-16
3.357383e-07	 -5.912512e-07	 -5.606158e-08
2.571060e-07	 -4.512026e-07	 -1.026288e-07
1.390674e-07	 -2.449043e-07	 -1.353446e-07
0	 0	 -1.451390e-07
0	 0	 1.539074e-07
2.568948e-07	 -4.504376e-07	 1.088290e-07
0	 0	 -1.539074e-07
3.633042e-07	 -6.370150e-07	 -5.226258e-16
2.568948e-07	 -4.504376e-07	 -1.088290e-07
3.630163e-07	 -6.358869e-07	 -7.645036e-16
2.566913e-07	 -4.496399e-07	 -1.150145e-07
0	 0	 1.626551e-07
1.388327e-07	 -2.441054e-07	 1.503844e-07
3.351718e-07	 -5.893226e-07	 -6.229128e-08
1.388327e-07	 -2.441054e-07	 -1.503844e-07
0	 0	 -1.626551e-07
2.566913e-07	 -4.496400e-07	 1.150145e-07
3.351718e-07	 -5.893226e-07	 6.229128e-08
2.564935e-07	 -4.488285e-07	 1.211920e-07
2.564935e-07	 -4.488285e-07	 -1.211920e-07
0	 0	 1.713914e-07
3.627366e-07	 -6.347393e-07	 -1.005947e-15
0	 0	 -1.713914e-07
0	 0	 1.801181e-07
1.386110e-07	 -2.432383e-07	 1.653684e-07
2.563010e-07	 -4.479852e-07	 1.273627e-07
3.346365e-07	 -5.872292e-07	 6.849785e-08
3.624643e-07	 -6.335467e-07	 -1.248957e-15
3.346365e-07	 -5.872292e-07	 -6.849785e-08
2.563010e-07	 -4.479852e-07	 -1.273627e-07
1.386110e-07	 -2.432383e-07	 -1.653684e-07
0	 0	 -1.801181e-07
2.616023e-07	 -4.530407e-07	 -1.122341e-07
2.616023e-07	 -4.530407e-07	 1.122341e-07
2.533117e-07	 -4.477079e-07	 8.984729e-08
2.533117e-07	 -4.477079e-07	 -8.984729e-08
0	 0	 -1.587229e-07
0	 0	 1.587229e-07
0	 0	 1.270633e-07
3.582368e-07	 -6.331545e-07	 -3.549608e-16
0	 0	 -1.270633e-07
3.699615e-07	 -6.406963e-07	 3.008120e-16
3.579112e-07	 -6.311579e-07	 -8.978605e-16
3.692606e-07	 -6.384124e-07	 7.449521e-16
2.530814e-07	 -4.462960e-07	 -1.006362e-07
0	 0	 -1.778661e-07
0	 0	 1.778661e-07
2.611067e-07	 -4.514258e-07	 -1.257703e-07
2.611067e-07	 -4.514258e-07	 1.257703e-07
0	 0	 1.423210e-07
0	 0	 -1.423210e-07
2.530814e-07	 -4.462961e-07	 1.006362e-07
2.606062e-07	 -4.496986e-07	 1.392661e-07
2.528985e-07	 -4.448095e-07	 -1.113935e-07
0	 0	 -1.969520e-07
3.685529e-07	 -6.359698e-07	 1.188903e-15
0	 0	 1.969520e-07
0	 0	 1.575342e-07
3.576524e-07	 -6.290557e-07	 -1.440685e-15
0	 0	 -1.575342e-07
2.606062e-07	 -4.496986e-07	 -1.392661e-07
2.528985e-07	 -4.448095e-07	 1.113935e-07
2.665598e-07	 -4.521528e-07	 -1.181413e-07
2.665598e-07	 -4.521528e-07	 1.181413e-07
1.445408e-07	 -2.454667e-07	 -1.557876e-07
3.769725e-07	 -6.394407e-07	 3.541242e-17
1.355901e-07	 -2.400600e-07	 9.587243e-08
2.510748e-07	 -4.427928e-07	 7.267020e-08
2.510748e-07	 -4.427928e-07	 -7.267020e-08
1.355901e-07	 -2.400600e-07	 -9.587243e-08
3.489524e-07	 -5.926090e-07	 -6.452932e-08
3.489524e-07	 -5.926090e-07	 6.452932e-08
1.445408e-07	 -2.454667e-07	 1.557876e-07
0	 0	 -1.670770e-07
0	 0	 1.670770e-07
3.550734e-07	 -6.262035e-07	 -2.082544e-16
0	 0	 1.027712e-07
3.273434e-07	 -5.795561e-07	 -3.971166e-08
0	 0	 -1.027712e-07
3.273434e-07	 -5.795561e-07	 3.971166e-08
2.662565e-07	 -4.513281e-07	 -1.252577e-07
2.509914e-07	 -4.421768e-07	 7.707386e-08
0	 0	 1.089989e-07
0	 0	 -1.089989e-07
3.765435e-07	 -6.382743e-07	 7.255108e-17
0	 0	 -1.771412e-07
0	 0	 1.771412e-07
2.662565e-07	 -4.513281e-07	 1.252577e-07
2.509914e-07	 -4.421768e-07	 -7.707386e-08
3.549555e-07	 -6.253324e-07	 -3.980296e-16
1.354815e-07	 -2.394097e-07	 -1.065544e-07
2.659413e-07	 -4.504688e-07	 -1.323573e-07
3.481807e-07	 -5.905351e-07	 7.167973e-08
2.509267e-07	 -4.415451e-07	 8.146710e-08
3.270812e-07	 -5.779861e-07	 -4.413628e-08
3.270812e-07	 -5.779861e-07	 4.413628e-08
0	 0	 -1.871815e-07
1.442212e-07	 -2.446076e-07	 -1.730502e-07
3.760978e-07	 -6.370591e-07	 1.095367e-16
0	 0	 1.871815e-07
3.548639e-07	 -6.244390e-07	 -5.861684e-16
0	 0	 1.152119e-07
1.354815e-07	 -2.394097e-07	 1.065544e-07
0	 0	 -1.152119e-07
3.481807e-07	 -5.905351e-07	 -7.167973e-08
1.442212e-07	 -2.446076e-07	 1.730502e-07
2.659413e-07	 -4.504688e-07	 1.323573e-07
2.509267e-07	 -4.415451e-07	 -8.146710e-08
0	 0	 -1.972093e-07
2.656220e-07	 -4.495934e-07	 -1.394481e-07
2.656220e-07	 -4.495934e-07	 1.394481e-07
0	 0	 1.972093e-07
0	 0	 1.214164e-07
2.508727e-07	 -4.409059e-07	 -8.585439e-08
0	 0	 -1.214164e-07
2.508727e-07	 -4.409059e-07	 8.585439e-08
3.756463e-07	 -6.358211e-07	 1.462953e-16
3.547876e-07	 -6.235351e-07	 -7.739924e-16
1.438775e-07	 -2.436742e-07	 -1.902492e-07
1.354084e-07	 -2.387219e-07	 1.171958e-07
2.508358e-07	 -4.402505e-07	 -9.023676e-08
1.354084e-07	 -2.387218e-07	 -1.171958e-07
0	 0	 -2.072260e-07
2.652930e-07	 -4.486833e-07	 -1.465309e-07
3.751809e-07	 -6.345340e-07	 1.830685e-16
3.473510e-07	 -5.882815e-07	 7.880378e-08
2.652930e-07	 -4.486833e-07	 1.465309e-07
1.438775e-07	 -2.436742e-07	 1.902492e-07
0	 0	 2.072260e-07
0	 0	 1.276141e-07
2.508358e-07	 -4.402505e-07	 9.023676e-08
3.547354e-07	 -6.226082e-07	 -9.629817e-16
3.269048e-07	 -5.763255e-07	 -4.854407e-08
0	 0	 -1.276141e-07
3.473510e-07	 -5.882815e-07	 -7.880378e-08
3.269048e-07	 -5.763255e-07	 4.854407e-08
0	 0	 -1.693984e-07
3.837516e-07	 -6.352963e-07	 -2.374329e-16
2.713533e-07	 -4.492223e-07	 1.197828e-07
0	 0	 1.693984e-07
0	 0	 7.385758e-08
3.542695e-07	 -6.183731e-07	 -2.986925e-17