# vtk DataFile Version 3.0
Unstructured Grid Example
ASCII
DATASET UNSTRUCTURED_GRID
POINTS 832 float
-1	 0	 0
-1	 0	 3.750000e-01
-1	 0	 7.500000e-01
-1	 0	 1.125000e+00
-1	 0	 1.500000e+00
-1	 0	 1.875000e+00
-1	 0	 2.250000e+00
-1	 0	 2.625000e+00
-1	 0	 3
-9.875000e-01	 0	 0
-9.875000e-01	 0	 1.500000e+00
-9.875000e-01	 0	 3
-9.875000e-01	 0	 2.250000e+00
-9.875000e-01	 0	 7.500000e-01
-9.833054e-01	 -1.819631e-01	 7.500000e-01
-9.833054e-01	 -1.819631e-01	 0
-9.833054e-01	 -1.819631e-01	 1.500000e+00
-9.833054e-01	 -1.819631e-01	 3.000000e+00
-9.833054e-01	 1.819631e-01	 2.250000e+00
-9.833054e-01	 1.819631e-01	 0
-9.833054e-01	 1.819631e-01	 1.500000e+00
-9.833054e-01	 1.819631e-01	 3.000000e+00
-9.833054e-01	 1.819631e-01	 7.500000e-01
-9.833054e-01	 -1.819631e-01	 2.250000e+00
-9.750000e-01	 0	 7.500000e-01
-9.750000e-01	 0	 1.125000e+00
-9.750000e-01	 0	 0
-9.750000e-01	 0	 3.750000e-01
-9.750000e-01	 0	 1.875000e+00
-9.750000e-01	 0	 2.625000e+00
-9.750000e-01	 0	 3
-9.750000e-01	 0	 1.500000e+00
-9.750000e-01	 0	 2.250000e+00
-9.625000e-01	 0	 1.500000e+00
-9.625000e-01	 0	 2.250000e+00
-9.625000e-01	 0	 0
-9.625000e-01	 0	 7.500000e-01
-9.625000e-01	 0	 3
-9.587227e-01	 -1.774140e-01	 0
-9.587227e-01	 -1.774140e-01	 3.000000e+00
-9.587227e-01	 -1.774140e-01	 1.500000e+00
-9.587227e-01	 1.774140e-01	 0
-9.587227e-01	 1.774140e-01	 3.000000e+00
-9.587227e-01	 1.774140e-01	 1.500000e+00
-9.587227e-01	 1.774140e-01	 7.500000e-01
-9.587227e-01	 -1.774140e-01	 7.500000e-01
-9.587227e-01	 -1.774140e-01	 2.250000e+00
-9.587227e-01	 1.774140e-01	 2.250000e+00
-9.500000e-01	 0	 0
-9.500000e-01	 0	 3.750000e-01
-9.500000e-01	 0	 1.125000e+00
-9.500000e-01	 0	 1.500000e+00
-9.500000e-01	 0	 1.875000e+00
-9.500000e-01	 0	 2.250000e+00
-9.500000e-01	 0	 2.625000e+00
-9.500000e-01	 0	 3
-9.500000e-01	 0	 7.500000e-01
-9.341401e-01	 -1.728649e-01	 1.500000e+00
-9.341401e-01	 -1.728649e-01	 0
-9.341401e-01	 -1.728649e-01	 3.000000e+00
-9.341401e-01	 1.728649e-01	 2.250000e+00
-9.341401e-01	 1.728649e-01	 0
-9.341401e-01	 1.728649e-01	 1.500000e+00
-9.341401e-01	 1.728649e-01	 3.000000e+00
-9.341401e-01	 -1.728649e-01	 7.500000e-01
-9.341401e-01	 -1.728649e-01	 2.250000e+00
-9.341401e-01	 1.728649e-01	 7.500000e-01
-9.297883e-01	 -3.680947e-01	 1.125000e+00
-9.297883e-01	 -3.680947e-01	 0
-9.297883e-01	 -3.680947e-01	 7.500000e-01
-9.297883e-01	 -3.680947e-01	 1.500000e+00
-9.297883e-01	 -3.680947e-01	 1.875000e+00
-9.297883e-01	 -3.680947e-01	 2.250000e+00
-9.297883e-01	 -3.680947e-01	 2.625000e+00
-9.297883e-01	 -3.680947e-01	 3.000000e+00
-9.297883e-01	 -3.680947e-01	 3.750000e-01
-9.297883e-01	 3.680947e-01	 3.750000e-01
-9.297883e-01	 3.680947e-01	 2.250000e+00
-9.297883e-01	 3.680947e-01	 2.625000e+00
-9.297883e-01	 3.680947e-01	 0
-9.297883e-01	 3.680947e-01	 7.500000e-01
-9.297883e-01	 3.680947e-01	 1.500000e+00
-9.297883e-01	 3.680947e-01	 1.875000e+00
-9.297883e-01	 3.680947e-01	 3.000000e+00
-9.297883e-01	 3.680947e-01	 1.125000e+00
-9.181659e-01	 3.634935e-01	 7.500000e-01
-9.181659e-01	 -3.634935e-01	 0
-9.181659e-01	 -3.634935e-01	 7.500000e-01
-9.181659e-01	 -3.634935e-01	 2.250000e+00
-9.181659e-01	 -3.634935e-01	 3
-9.181659e-01	 3.634935e-01	 0
-9.181659e-01	 3.634935e-01	 2.250000e+00
-9.181659e-01	 3.634935e-01	 3
-9.181659e-01	 -3.634935e-01	 1.500000e+00
-9.181659e-01	 3.634935e-01	 1.500000e+00
-9.065436e-01	 -3.588923e-01	 1.125000e+00
-9.065436e-01	 -3.588923e-01	 2.625000e+00
-9.065436e-01	 -3.588923e-01	 0
-9.065436e-01	 -3.588923e-01	 3.750000e-01
-9.065436e-01	 -3.588923e-01	 1.500000e+00
-9.065436e-01	 -3.588923e-01	 3
-9.065436e-01	 3.588923e-01	 2.625000e+00
-9.065436e-01	 3.588923e-01	 1.125000e+00
-9.065436e-01	 3.588923e-01	 0
-9.065436e-01	 3.588923e-01	 3.750000e-01
-9.065436e-01	 3.588923e-01	 3
-9.065436e-01	 -3.588923e-01	 7.500000e-01
-9.065436e-01	 -3.588923e-01	 1.875000e+00
-9.065436e-01	 3.588923e-01	 1.875000e+00
-9.065436e-01	 3.588923e-01	 1.500000e+00
-9.065436e-01	 -3.588923e-01	 2.250000e+00
-9.065436e-01	 3.588923e-01	 7.500000e-01
-9.065436e-01	 3.588923e-01	 2.250000e+00
-8.949212e-01	 3.542912e-01	 1.500000e+00
-8.949212e-01	 -3.542912e-01	 1.500000e+00
-8.949212e-01	 -3.542912e-01	 0
-8.949212e-01	 -3.542912e-01	 3.000000e+00
-8.949212e-01	 3.542912e-01	 0
-8.949212e-01	 3.542912e-01	 3.000000e+00
-8.949212e-01	 -3.542912e-01	 2.250000e+00
-8.949212e-01	 -3.542912e-01	 7.500000e-01
-8.949212e-01	 3.542912e-01	 2.250000e+00
-8.949212e-01	 3.542912e-01	 7.500000e-01
-8.832989e-01	 -3.496900e-01	 1.125000e+00
-8.832989e-01	 -3.496900e-01	 1.875000e+00
-8.832989e-01	 -3.496900e-01	 2.625000e+00
-8.832989e-01	 -3.496900e-01	 2.250000e+00
-8.832989e-01	 3.496900e-01	 1.125000e+00
-8.832989e-01	 -3.496900e-01	 0
-8.832989e-01	 -3.496900e-01	 3.000000e+00
-8.832989e-01	 -3.496900e-01	 3.750000e-01
-8.832989e-01	 -3.496900e-01	 7.500000e-01
-8.832989e-01	 3.496900e-01	 3.750000e-01
-8.832989e-01	 3.496900e-01	 7.500000e-01
-8.832989e-01	 3.496900e-01	 2.250000e+00
-8.832989e-01	 3.496900e-01	 2.625000e+00
-8.832989e-01	 3.496900e-01	 0
-8.832989e-01	 3.496900e-01	 1.875000e+00
-8.832989e-01	 3.496900e-01	 3.000000e+00
-8.832989e-01	 -3.496900e-01	 1.500000e+00
-8.832989e-01	 3.496900e-01	 1.500000e+00
-8.369955e-01	 -5.472098e-01	 0
-8.369955e-01	 -5.472098e-01	 7.500000e-01
-8.369955e-01	 -5.472098e-01	 1.500000e+00
-8.369955e-01	 -5.472098e-01	 2.250000e+00
-8.369955e-01	 -5.472098e-01	 3
-8.369955e-01	 5.472098e-01	 0
-8.369955e-01	 5.472098e-01	 7.500000e-01
-8.369955e-01	 5.472098e-01	 1.500000e+00
-8.369955e-01	 5.472098e-01	 2.250000e+00
-8.369955e-01	 5.472098e-01	 3
-8.160706e-01	 -5.335295e-01	 7.500000e-01
-8.160706e-01	 5.335295e-01	 7.500000e-01
-8.160706e-01	 -5.335295e-01	 1.500000e+00
-8.160706e-01	 -5.335295e-01	 2.250000e+00
-8.160706e-01	 5.335295e-01	 1.500000e+00
-8.160706e-01	 5.335295e-01	 2.250000e+00
-8.160706e-01	 -5.335295e-01	 0
-8.160706e-01	 -5.335295e-01	 3.000000e+00
-8.160706e-01	 5.335295e-01	 0
-8.160706e-01	 5.335295e-01	 3.000000e+00
-7.951457e-01	 -5.198493e-01	 7.500000e-01
-7.951457e-01	 5.198493e-01	 7.500000e-01
-7.951457e-01	 -5.198493e-01	 0
-7.951457e-01	 -5.198493e-01	 1.500000e+00
-7.951457e-01	 -5.198493e-01	 2.250000e+00
-7.951457e-01	 -5.198493e-01	 3
-7.951457e-01	 5.198493e-01	 0
-7.951457e-01	 5.198493e-01	 1.500000e+00
-7.951457e-01	 5.198493e-01	 2.250000e+00
-7.951457e-01	 5.198493e-01	 3
-7.071068e-01	 -7.071068e-01	 0
-7.071068e-01	 -7.071068e-01	 3.750000e-01
-7.071068e-01	 -7.071068e-01	 7.500000e-01
-7.071068e-01	 -7.071068e-01	 1.125000e+00
-7.071068e-01	 -7.071068e-01	 1.500000e+00
-7.071068e-01	 -7.071068e-01	 1.875000e+00
-7.071068e-01	 -7.071068e-01	 2.250000e+00
-7.071068e-01	 -7.071068e-01	 2.625000e+00
-7.071068e-01	 -7.071068e-01	 3.000000e+00
-7.071068e-01	 7.071068e-01	 0
-7.071068e-01	 7.071068e-01	 3.750000e-01
-7.071068e-01	 7.071068e-01	 7.500000e-01
-7.071068e-01	 7.071068e-01	 1.125000e+00
-7.071068e-01	 7.071068e-01	 1.500000e+00
-7.071068e-01	 7.071068e-01	 1.875000e+00
-7.071068e-01	 7.071068e-01	 2.250000e+00
-7.071068e-01	 7.071068e-01	 2.625000e+00
-7.071068e-01	 7.071068e-01	 3.000000e+00
-6.982679e-01	 -6.982679e-01	 7.500000e-01
-6.982679e-01	 6.982679e-01	 7.500000e-01
-6.982679e-01	 -6.982679e-01	 0
-6.982679e-01	 -6.982679e-01	 2.250000e+00
-6.982679e-01	 -6.982679e-01	 3.000000e+00
-6.982679e-01	 6.982679e-01	 0
-6.982679e-01	 6.982679e-01	 2.250000e+00
-6.982679e-01	 6.982679e-01	 3.000000e+00
-6.982679e-01	 -6.982679e-01	 1.500000e+00
-6.982679e-01	 6.982679e-01	 1.500000e+00
-6.894291e-01	 -6.894291e-01	 3.750000e-01
-6.894291e-01	 -6.894291e-01	 2.625000e+00
-6.894291e-01	 -6.894291e-01	 0
-6.894291e-01	 -6.894291e-01	 1.500000e+00
-6.894291e-01	 -6.894291e-01	 2.250000e+00
-6.894291e-01	 -6.894291e-01	 3.000000e+00
-6.894291e-01	 6.894291e-01	 3.750000e-01
-6.894291e-01	 6.894291e-01	 2.625000e+00
-6.894291e-01	 -6.894291e-01	 1.875000e+00
-6.894291e-01	 6.894291e-01	 1.875000e+00
-6.894291e-01	 -6.894291e-01	 7.500000e-01
-6.894291e-01	 -6.894291e-01	 1.125000e+00
-6.894291e-01	 6.894291e-01	 0
-6.894291e-01	 6.894291e-01	 1.500000e+00
-6.894291e-01	 6.894291e-01	 2.250000e+00
-6.894291e-01	 6.894291e-01	 3.000000e+00
-6.894291e-01	 6.894291e-01	 7.500000e-01
-6.894291e-01	 6.894291e-01	 1.125000e+00
-6.805903e-01	 6.805903e-01	 7.500000e-01
-6.805903e-01	 -6.805903e-01	 7.500000e-01
-6.805903e-01	 -6.805903e-01	 0
-6.805903e-01	 -6.805903e-01	 1.500000e+00
-6.805903e-01	 -6.805903e-01	 3.000000e+00
-6.805903e-01	 6.805903e-01	 0
-6.805903e-01	 6.805903e-01	 1.500000e+00
-6.805903e-01	 6.805903e-01	 3.000000e+00
-6.805903e-01	 6.805903e-01	 2.250000e+00
-6.805903e-01	 -6.805903e-01	 2.250000e+00
-6.717514e-01	 -6.717514e-01	 2.625000e+00
-6.717514e-01	 6.717514e-01	 2.625000e+00
-6.717514e-01	 -6.717514e-01	 0
-6.717514e-01	 -6.717514e-01	 3.750000e-01
-6.717514e-01	 -6.717514e-01	 7.500000e-01
-6.717514e-01	 -6.717514e-01	 1.125000e+00
-6.717514e-01	 -6.717514e-01	 1.875000e+00
-6.717514e-01	 -6.717514e-01	 3.000000e+00
-6.717514e-01	 -6.717514e-01	 2.250000e+00
-6.717514e-01	 6.717514e-01	 1.500000e+00
-6.717514e-01	 6.717514e-01	 0
-6.717514e-01	 6.717514e-01	 3.750000e-01
-6.717514e-01	 6.717514e-01	 7.500000e-01
-6.717514e-01	 6.717514e-01	 1.125000e+00
-6.717514e-01	 6.717514e-01	 1.875000e+00
-6.717514e-01	 6.717514e-01	 3.000000e+00
-6.717514e-01	 -6.717514e-01	 1.500000e+00
-6.717514e-01	 6.717514e-01	 2.250000e+00
-5.472098e-01	 -8.369955e-01	 0
-5.472098e-01	 -8.369955e-01	 7.500000e-01
-5.472098e-01	 -8.369955e-01	 1.500000e+00
-5.472098e-01	 -8.369955e-01	 2.250000e+00
-5.472098e-01	 -8.369955e-01	 3
-5.472098e-01	 8.369955e-01	 0
-5.472098e-01	 8.369955e-01	 7.500000e-01
-5.472098e-01	 8.369955e-01	 1.500000e+00
-5.472098e-01	 8.369955e-01	 2.250000e+00
-5.472098e-01	 8.369955e-01	 3
-5.335295e-01	 -8.160706e-01	 1.500000e+00
-5.335295e-01	 -8.160706e-01	 2.250000e+00
-5.335295e-01	 8.160706e-01	 0
-5.335295e-01	 8.160706e-01	 3.000000e+00
[...]
POINT_DATA 832
VECTORS displacement float
0	 0	 3.771083e-12
6.305451e-12	 -1.661807e-06	 3.470584e-12
1.171736e-11	 -3.081941e-06	 2.696613e-12
1.549985e-11	 -4.011957e-06	 1.476400e-12
1.693897e-11	 -4.358522e-06	 4.191308e-14
1.589457e-11	 -4.011957e-06	 -1.423001e-12
1.224025e-11	 -3.081941e-06	 -2.699523e-12
6.700071e-12	 -1.661807e-06	 -3.529816e-12
0	 0	 -3.860744e-12
0	 0	 3.545760e-12
1.695930e-11	 -4.544527e-06	 3.355209e-14
0	 0	 -3.618705e-12
1.225561e-11	 -3.213466e-06	 -2.534322e-12
1.173076e-11	 -3.213466e-06	 2.531415e-12
-1.794396e-06	 -3.257364e-06	 -4.248823e-07
0	 0	 -6.008744e-07
-2.537659e-06	 -4.606608e-06	 8.203960e-14
0	 0	 6.008742e-07
1.794420e-06	 -3.257364e-06	 -4.248875e-07
0	 0	 6.008817e-07
2.537693e-06	 -4.606608e-06	 -6.743975e-15
0	 0	 -6.008817e-07
1.794420e-06	 -3.257364e-06	 4.248875e-07
-1.794395e-06	 -3.257364e-06	 4.248823e-07
1.174432e-11	 -3.344882e-06	 2.366072e-12
1.553612e-11	 -4.357832e-06	 1.301791e-12
0	 0	 3.320200e-12
6.319965e-12	 -1.805073e-06	 3.079890e-12
1.593258e-11	 -4.357831e-06	 -1.266566e-12
6.716332e-12	 -1.805073e-06	 -3.120950e-12
0	 0	 -3.376496e-12
1.697949e-11	 -4.730377e-06	 2.522411e-14
1.227061e-11	 -3.344882e-06	 -2.368975e-12
1.699784e-11	 -4.915028e-06	 1.687972e-14
1.228427e-11	 -3.475450e-06	 -2.203497e-12
0	 0	 3.094468e-12
1.175662e-11	 -3.475450e-06	 2.200596e-12
0	 0	 -3.134083e-12
0	 0	 -5.093303e-07
0	 0	 5.093302e-07
-2.484434e-06	 -4.925302e-06	 5.087887e-14
0	 0	 5.093367e-07
0	 0	 -5.093367e-07
2.484468e-06	 -4.925301e-06	 -4.703348e-15
1.756784e-06	 -3.482714e-06	 3.601555e-07
-1.756761e-06	 -3.482714e-06	 -3.601509e-07
-1.756760e-06	 -3.482714e-06	 3.601509e-07
1.756784e-06	 -3.482714e-06	 -3.601555e-07
0	 0	 2.868499e-12
6.333298e-12	 -1.947755e-06	 2.688326e-12
1.556867e-11	 -4.702297e-06	 1.126769e-12
1.701640e-11	 -5.100504e-06	 8.478223e-15
1.596565e-11	 -4.702297e-06	 -1.109793e-12
1.229780e-11	 -3.606601e-06	 -2.037811e-12
6.730173e-12	 -1.947755e-06	 -2.711137e-12
0	 0	 -2.891318e-12
1.176935e-11	 -3.606602e-06	 2.034913e-12
-2.426865e-06	 -5.245180e-06	 1.966906e-14
0	 0	 -4.176465e-07
0	 0	 4.176465e-07
1.716077e-06	 -3.708902e-06	 -2.953246e-07
0	 0	 4.176520e-07
2.426900e-06	 -5.245180e-06	 -2.652340e-15
0	 0	 -4.176520e-07
-1.716053e-06	 -3.708903e-06	 -2.953207e-07
-1.716053e-06	 -3.708902e-06	 2.953207e-07
1.716077e-06	 -3.708903e-06	 2.953246e-07
-4.386444e-06	 -4.882466e-06	 -4.343956e-07
0	 0	 -1.144562e-06
-3.330706e-06	 -3.734219e-06	 -8.093277e-07
-4.710328e-06	 -5.280982e-06	 9.675554e-14
-4.386443e-06	 -4.882466e-06	 4.343957e-07
-3.330704e-06	 -3.734218e-06	 8.093277e-07
-1.816924e-06	 -2.022383e-06	 1.048724e-06
0	 0	 1.144562e-06
-1.816925e-06	 -2.022384e-06	 -1.048724e-06
1.816938e-06	 -2.022384e-06	 1.048730e-06
3.330729e-06	 -3.734218e-06	 -8.093322e-07
1.816937e-06	 -2.022383e-06	 -1.048730e-06
0	 0	 1.144569e-06
3.330730e-06	 -3.734219e-06	 8.093322e-07
4.710363e-06	 -5.280982e-06	 -5.503486e-14
4.386475e-06	 -4.882466e-06	 -4.343981e-07
0	 0	 -1.144569e-06
4.386476e-06	 -4.882466e-06	 4.343981e-07
3.302895e-06	 -3.824140e-06	 7.478845e-07
0	 0	 -1.057662e-06
-3.302871e-06	 -3.824140e-06	 -7.478803e-07
-3.302870e-06	 -3.824140e-06	 7.478803e-07
0	 0	 1.057662e-06
0	 0	 1.057668e-06
3.302895e-06	 -3.824139e-06	 -7.478845e-07
0	 0	 -1.057668e-06
-4.670964e-06	 -5.408150e-06	 7.792339e-14
4.670999e-06	 -5.408150e-06	 -4.480532e-14
-4.310535e-06	 -5.116397e-06	 -3.725415e-07
-1.785481e-06	 -2.119281e-06	 8.993949e-07
0	 0	 -9.708598e-07
-1.785482e-06	 -2.119281e-06	 -8.993950e-07
-4.629801e-06	 -5.534551e-06	 5.917256e-14
0	 0	 9.708597e-07
1.785495e-06	 -2.119281e-06	 -8.994000e-07
4.310567e-06	 -5.116397e-06	 3.725437e-07
0	 0	 9.708653e-07
1.785495e-06	 -2.119281e-06	 8.994000e-07
0	 0	 -9.708652e-07
-3.273764e-06	 -3.913519e-06	 -6.865015e-07
-4.310534e-06	 -5.116397e-06	 3.725416e-07
4.310566e-06	 -5.116397e-06	 -3.725437e-07
4.629836e-06	 -5.534551e-06	 -3.462605e-14
-3.273763e-06	 -3.913519e-06	 6.865015e-07
3.273788e-06	 -3.913519e-06	 6.865054e-07
3.273788e-06	 -3.913518e-06	 -6.865054e-07
4.587915e-06	 -5.659814e-06	 -2.444117e-14
-4.587881e-06	 -5.659814e-06	 4.039677e-14
0	 0	 -8.839972e-07
0	 0	 8.839971e-07
0	 0	 8.840023e-07
0	 0	 -8.840022e-07
-3.244121e-06	 -4.002092e-06	 6.250804e-07
-3.244122e-06	 -4.002093e-06	 -6.250804e-07
3.244146e-06	 -4.002092e-06	 -6.250840e-07
3.244146e-06	 -4.002093e-06	 6.250840e-07
-4.228957e-06	 -5.347130e-06	 -3.105712e-07
-4.228956e-06	 -5.347130e-06	 3.105713e-07
-1.751691e-06	 -2.214854e-06	 7.497853e-07
-3.212913e-06	 -4.090422e-06	 5.634938e-07
4.228988e-06	 -5.347130e-06	 3.105730e-07
0	 0	 -7.969006e-07
0	 0	 7.969006e-07
-1.751691e-06	 -2.214854e-06	 -7.497854e-07
-3.212914e-06	 -4.090422e-06	 -5.634938e-07
1.751704e-06	 -2.214854e-06	 7.497897e-07
3.212938e-06	 -4.090422e-06	 5.634971e-07
3.212938e-06	 -4.090422e-06	 -5.634971e-07
1.751704e-06	 -2.214854e-06	 -7.497897e-07
0	 0	 7.969053e-07
4.228988e-06	 -5.347130e-06	 -3.105731e-07
0	 0	 -7.969052e-07
-4.543746e-06	 -5.784731e-06	 2.148703e-14
4.543780e-06	 -5.784730e-06	 -1.418184e-14
0	 0	 -1.539634e-06
-4.330707e-06	 -4.305232e-06	 -1.088686e-06
-6.124544e-06	 -6.088517e-06	 8.626173e-14
-4.330706e-06	 -4.305231e-06	 1.088686e-06
0	 0	 1.539634e-06
0	 0	 1.539639e-06
4.330730e-06	 -4.305231e-06	 1.088689e-06
6.124577e-06	 -6.088516e-06	 -8.936805e-14
4.330730e-06	 -4.305230e-06	 -1.088689e-06
0	 0	 -1.539639e-06
-4.287453e-06	 -4.389709e-06	 -9.249596e-07
4.287477e-06	 -4.389708e-06	 9.249623e-07
-6.063374e-06	 -6.207986e-06	 5.401184e-14
-4.287452e-06	 -4.389709e-06	 9.249596e-07
6.063407e-06	 -6.207985e-06	 -5.728846e-14
4.287476e-06	 -4.389708e-06	 -9.249623e-07
0	 0	 -1.308090e-06
0	 0	 1.308090e-06
0	 0	 1.308094e-06
0	 0	 -1.308094e-06
-4.238271e-06	 -4.470961e-06	 -7.610784e-07
4.238294e-06	 -4.470960e-06	 7.610807e-07
0	 0	 -1.076327e-06
-5.993819e-06	 -6.322893e-06	 2.173362e-14
-4.238270e-06	 -4.470961e-06	 7.610784e-07
0	 0	 1.076327e-06
0	 0	 1.076331e-06
5.993853e-06	 -6.322892e-06	 -2.517494e-14
4.238294e-06	 -4.470959e-06	 -7.610807e-07
0	 0	 -1.076331e-06
0	 0	 -1.667056e-06
-2.495016e-06	 -2.495023e-06	 -1.528921e-06
-4.583514e-06	 -4.583527e-06	 -1.178787e-06
-6.023501e-06	 -6.023518e-06	 -6.332999e-07
-6.482067e-06	 -6.482086e-06	 3.817256e-14
-6.023501e-06	 -6.023518e-06	 6.333000e-07
-4.583513e-06	 -4.583527e-06	 1.178787e-06
-2.495016e-06	 -2.495023e-06	 1.528921e-06
0	 0	 1.667056e-06
0	 0	 1.667058e-06
2.495027e-06	 -2.495022e-06	 1.528923e-06
4.583534e-06	 -4.583524e-06	 1.178788e-06
6.023527e-06	 -6.023515e-06	 6.333006e-07
6.482095e-06	 -6.482081e-06	 -8.740925e-14
6.023526e-06	 -6.023514e-06	 -6.333007e-07
4.583533e-06	 -4.583523e-06	 -1.178788e-06
2.495026e-06	 -2.495021e-06	 -1.528923e-06
0	 0	 -1.667058e-06
-4.590815e-06	 -4.590828e-06	 -1.089769e-06
4.590835e-06	 -4.590825e-06	 1.089771e-06
0	 0	 -1.541167e-06
-4.590814e-06	 -4.590828e-06	 1.089769e-06
0	 0	 1.541167e-06
0	 0	 1.541168e-06
4.590834e-06	 -4.590824e-06	 -1.089771e-06
0	 0	 -1.541168e-06
-6.492392e-06	 -6.492411e-06	 3.053982e-14
6.492420e-06	 -6.492407e-06	 -7.103433e-14
-2.501506e-06	 -2.501514e-06	 -1.312068e-06
-2.501506e-06	 -2.501514e-06	 1.312068e-06
0	 0	 -1.415400e-06
-6.500840e-06	 -6.500860e-06	 2.295180e-14
-4.596787e-06	 -4.596802e-06	 1.000839e-06
0	 0	 1.415400e-06
2.501517e-06	 -2.501512e-06	 1.312070e-06
2.501517e-06	 -2.501512e-06	 -1.312069e-06
-6.039170e-06	 -6.039188e-06	 5.434764e-07
6.039196e-06	 -6.039183e-06	 -5.434770e-07
-4.596788e-06	 -4.596802e-06	 -1.000839e-06
-6.039170e-06	 -6.039188e-06	 -5.434764e-07
0	 0	 1.415401e-06
6.500868e-06	 -6.500855e-06	 -5.473815e-14
4.596807e-06	 -4.596798e-06	 -1.000840e-06
0	 0	 -1.415401e-06
4.596808e-06	 -4.596799e-06	 1.000840e-06
6.039196e-06	 -6.039184e-06	 5.434769e-07
4.602017e-06	 -4.602008e-06	 9.118244e-07
-4.601997e-06	 -4.602011e-06	 -9.118235e-07
0	 0	 -1.289513e-06
-6.508206e-06	 -6.508227e-06	 1.535784e-14
0	 0	 1.289513e-06
0	 0	 1.289514e-06
6.508234e-06	 -6.508221e-06	 -3.842641e-14
0	 0	 -1.289514e-06
4.602016e-06	 -4.602007e-06	 -9.118244e-07
-4.601996e-06	 -4.602011e-06	 9.118235e-07
-2.505446e-06	 -2.505455e-06	 1.094729e-06
2.505457e-06	 -2.505452e-06	 -1.094730e-06
0	 0	 -1.163296e-06
-2.505447e-06	 -2.505455e-06	 -1.094729e-06
-4.605729e-06	 -4.605744e-06	 -8.225745e-07
-6.048683e-06	 -6.048703e-06	 -4.534516e-07
-6.048683e-06	 -6.048703e-06	 4.534516e-07
0	 0	 1.163296e-06
-4.605728e-06	 -4.605744e-06	 8.225745e-07
6.513513e-06	 -6.513500e-06	 -2.199133e-14
0	 0	 1.163297e-06
2.505458e-06	 -2.505453e-06	 1.094730e-06
4.605750e-06	 -4.605740e-06	 8.225753e-07
6.048710e-06	 -6.048698e-06	 4.534520e-07
6.048710e-06	 -6.048697e-06	 -4.534520e-07
0	 0	 -1.163297e-06
-6.513484e-06	 -6.513506e-06	 7.699408e-15
4.605749e-06	 -4.605740e-06	 -8.225753e-07
0	 0	 -1.539638e-06
-4.305225e-06	 -4.330729e-06	 -1.088688e-06
-6.088508e-06	 -6.124576e-06	 -2.359413e-14
-4.305225e-06	 -4.330729e-06	 1.088688e-06
0	 0	 1.539638e-06
0	 0	 1.539637e-06
4.305240e-06	 -4.330720e-06	 1.088687e-06
6.088528e-06	 -6.124563e-06	 -5.951533e-14
4.305239e-06	 -4.330720e-06	 -1.088687e-06
0	 0	 -1.539636e-06
-6.207976e-06	 -6.063407e-06	 -1.565379e-14
-4.389702e-06	 -4.287476e-06	 9.249620e-07
0	 0	 1.308092e-06
0	 0	 -1.308092e-06
6.207997e-06	 -6.063393e-06	 -3.798485e-14
4.389717e-06	 -4.287466e-06	 -9.249610e-07
-4.389702e-06	 -4.287476e-06	 -9.249620e-07
0	 0	 -1.308094e-06
0	 0	 1.308094e-06
4.389717e-06	 -4.287466e-06	 9.249610e-07
4.470969e-06	 -4.238284e-06	 7.610794e-07
-4.470953e-06	 -4.238294e-06	 -7.610804e-07
0	 0	 -1.076330e-06
-6.322882e-06	 -5.993853e-06	 -7.701747e-15
-4.470953e-06	 -4.238294e-06	 7.610804e-07
0	 0	 1.076330e-06
0	 0	 1.076329e-06
6.322905e-06	 -5.993838e-06	 -1.643345e-14
4.470969e-06	 -4.238283e-06	 -7.610794e-07
0	 0	 -1.076329e-06
-4.882464e-06	 -4.386484e-06	 -4.343985e-07
4.882475e-06	 -4.386459e-06	 4.343965e-07
0	 0	 -1.144569e-06
-3.734217e-06	 -3.330735e-06	 -8.093329e-07
-5.280980e-06	 -4.710372e-06	 -8.044835e-14
-4.882464e-06	 -4.386484e-06	 4.343984e-07
0	 0	 1.144570e-06
0	 0	 1.144564e-06
3.734225e-06	 -3.330717e-06	 8.093292e-07
5.280992e-06	 -4.710345e-06	 -4.101672e-15
4.882475e-06	 -4.386459e-06	 -4.343965e-07
3.734225e-06	 -3.330717e-06	 -8.093293e-07
2.022387e-06	 -1.816931e-06	 -1.048726e-06
0	 0	 -1.144564e-06
-2.022383e-06	 -1.816941e-06	 -1.048731e-06
-3.734217e-06	 -3.330736e-06	 8.093329e-07
-2.022383e-06	 -1.816942e-06	 1.048731e-06
2.022387e-06	 -1.816931e-06	 1.048726e-06
-5.408147e-06	 -4.671008e-06	 -6.540643e-14
5.408160e-06	 -4.670981e-06	 -3.446166e-15
-3.824138e-06	 -3.302901e-06	 -7.478851e-07
0	 0	 -1.057669e-06
-3.824138e-06	 -3.302902e-06	 7.478851e-07
0	 0	 1.057669e-06
0	 0	 1.057664e-06
3.824147e-06	 -3.302882e-06	 7.478816e-07
3.824147e-06	 -3.302882e-06	 -7.478816e-07
0	 0	 -1.057664e-06
-3.913516e-06	 -3.273796e-06	 6.865059e-07
3.913526e-06	 -3.273775e-06	 -6.865027e-07
5.116407e-06	 -4.310550e-06	 3.725422e-07
2.119285e-06	 -1.785488e-06	 -8.993965e-07
0	 0	 -9.708660e-07
-2.119280e-06	 -1.785499e-06	 -8.994007e-07
0	 0	 9.708661e-07
-5.534548e-06	 -4.629846e-06	 -5.041985e-14
0	 0	 9.708614e-07
2.119285e-06	 -1.785488e-06	 8.993965e-07
5.534562e-06	 -4.629817e-06	 -2.811031e-15
0	 0	 -9.708614e-07
-5.116394e-06	 -4.310575e-06	 -3.725440e-07
-5.116394e-06	 -4.310576e-06	 3.725439e-07
-3.913516e-06	 -3.273795e-06	 -6.865060e-07
3.913526e-06	 -3.273775e-06	 6.865027e-07
5.116407e-06	 -4.310550e-06	 -3.725422e-07
-2.119280e-06	 -1.785499e-06	 8.994008e-07
-5.659809e-06	 -4.587925e-06	 -3.540322e-14
-4.002090e-06	 -3.244154e-06	 6.250844e-07
4.002100e-06	 -3.244133e-06	 -6.250814e-07
0	 0	 8.839986e-07
0	 0	 -8.839986e-07
5.659825e-06	 -4.587897e-06	 -2.185857e-15
0	 0	 -8.840028e-07
0	 0	 8.840029e-07
-4.002090e-06	 -3.244153e-06	 -6.250844e-07
4.002101e-06	 -3.244133e-06	 6.250814e-07
-5.347126e-06	 -4.228998e-06	 -3.105733e-07
0	 0	 -7.969058e-07
-5.347126e-06	 -4.228998e-06	 3.105733e-07
0	 0	 7.969058e-07
-5.784725e-06	 -4.543791e-06	 -2.028428e-14
0	 0	 7.969018e-07
0	 0	 -7.969018e-07
5.347141e-06	 -4.228971e-06	 3.105717e-07
5.347141e-06	 -4.228971e-06	 -3.105717e-07
2.214858e-06	 -1.751697e-06	 -7.497865e-07
-2.214852e-06	 -1.751708e-06	 -7.497902e-07
-4.090419e-06	 -3.212945e-06	 -5.634975e-07
-4.090419e-06	 -3.212946e-06	 5.634975e-07
-2.214852e-06	 -1.751709e-06	 7.497902e-07
5.784742e-06	 -4.543762e-06	 -1.542684e-15
2.214858e-06	 -1.751697e-06	 7.497865e-07
4.090430e-06	 -3.212925e-06	 -5.634947e-07
4.090430e-06	 -3.212925e-06	 5.634947e-07
-3.257364e-06	 -1.794432e-06	 -4.248891e-07
3.257369e-06	 -1.794402e-06	 4.248831e-07
0	 0	 -6.008838e-07
-4.606608e-06	 -2.537712e-06	 -1.170764e-13
0	 0	 6.008840e-07
0	 0	 6.008754e-07
4.606616e-06	 -2.537668e-06	 5.238808e-14
0	 0	 -6.008755e-07
-3.257364e-06	 -1.794434e-06	 4.248891e-07
3.257369e-06	 -1.794402e-06	 -4.248831e-07
-3.482713e-06	 -1.756797e-06	 -3.601567e-07
0	 0	 -5.093384e-07
0	 0	 5.093385e-07
3.482720e-06	 -1.756766e-06	 3.601515e-07
3.482720e-06	 -1.756767e-06	 -3.601515e-07
0	 0	 5.093312e-07
0	 0	 -5.093312e-07
-3.482714e-06	 -1.756799e-06	 3.601567e-07
4.925310e-06	 -2.484443e-06	 3.268998e-14
-4.925301e-06	 -2.484488e-06	 -7.409611e-14
5.245190e-06	 -2.426874e-06	 1.298993e-14
0	 0	 -4.176532e-07
-5.245178e-06	 -2.426919e-06	 -3.107410e-14
0	 0	 4.176532e-07
0	 0	 4.176471e-07
0	 0	 -4.176472e-07
-3.708901e-06	 -1.716092e-06	 2.953254e-07
-3.708901e-06	 -1.716090e-06	 -2.953254e-07
3.708909e-06	 -1.716059e-06	 2.953211e-07
3.708909e-06	 -1.716059e-06	 -2.953211e-07
0	 0	 -6.337526e-12
-1.661807e-06	 -1.478009e-11	 -5.836415e-12
-3.081941e-06	 -2.738526e-11	 -4.559458e-12
-4.011956e-06	 -3.640517e-11	 -2.520324e-12
-4.358522e-06	 -3.969162e-11	 -1.114410e-13
-4.011957e-06	 -3.742853e-11	 2.373020e-12
-3.081941e-06	 -2.874822e-11	 4.556176e-12
-1.661807e-06	 -1.580314e-11	 5.977074e-12
0	 0	 6.553692e-12
0	 0	 -5.814057e-12
-4.544527e-06	 -3.976125e-11	 -9.021990e-14
0	 0	 5.987801e-12
-3.213466e-06	 -2.880016e-11	 4.171023e-12
-3.213466e-06	 -2.743180e-11	 -4.174315e-12
-3.344882e-06	 -2.746646e-11	 -3.789982e-12
-4.357831e-06	 -3.650256e-11	 -2.107131e-12
0	 0	 -5.291618e-12
-1.805073e-06	 -1.481918e-11	 -4.920868e-12
-4.357831e-06	 -3.753020e-11	 2.007909e-12
-1.805073e-06	 -1.584651e-11	 5.013443e-12
0	 0	 5.423169e-12
-4.730377e-06	 -3.981293e-11	 -6.911296e-14
-3.344882e-06	 -2.883860e-11	 3.786679e-12
-4.915028e-06	 -3.985378e-11	 -4.796496e-14
-3.475450e-06	 -2.886924e-11	 3.401787e-12
0	 0	 -4.768446e-12
-3.475450e-06	 -2.749359e-11	 -3.405100e-12
0	 0	 4.857720e-12
0	 0	 -4.243627e-12
-1.947755e-06	 -1.483581e-11	 -4.003145e-12
-4.702297e-06	 -3.654315e-11	 -1.692901e-12
-5.100504e-06	 -3.987430e-11	 -2.664987e-14
-4.702297e-06	 -3.757142e-11	 1.641953e-12
-3.606601e-06	 -2.888459e-11	 3.015613e-12
-1.947755e-06	 -1.586377e-11	 4.047444e-12
0	 0	 4.290292e-12
-3.606601e-06	 -2.750726e-11	 -3.018937e-12
3.606608e-06	 1.364150e-11	 -2.118259e-12
0	 0	 -3.015061e-12
1.947759e-06	 7.520759e-12	 -2.827622e-12
4.702305e-06	 1.756743e-11	 -1.145526e-12
5.100514e-06	 1.850451e-11	 1.848748e-14
4.702305e-06	 1.673858e-11	 1.180107e-12
3.606608e-06	 1.253164e-11	 2.115026e-12
1.947759e-06	 6.692514e-12	 2.786388e-12
0	 0	 2.971260e-12
0	 0	 -3.286784e-12
3.475456e-06	 1.362762e-11	 -2.298243e-12
0	 0	 3.208857e-12
4.915037e-06	 1.848574e-11	 3.557111e-14
3.475456e-06	 1.251898e-11	 2.294991e-12
4.730385e-06	 1.846575e-11	 5.251471e-14
3.344887e-06	 1.250625e-11	 2.474671e-12
0	 0	 -3.557961e-12
1.805076e-06	 7.506791e-12	 -3.283158e-12
4.357838e-06	 1.670516e-11	 1.380134e-12
1.805076e-06	 6.678725e-12	 3.202840e-12
0	 0	 3.446189e-12
3.344887e-06	 1.361206e-11	 -2.477943e-12
4.357838e-06	 1.753383e-11	 -1.306467e-12
3.213471e-06	 1.359471e-11	 -2.657482e-12
3.213471e-06	 1.249195e-11	 2.654191e-12
0	 0	 -3.828880e-12
4.544534e-06	 1.844338e-11	 6.942608e-14
0	 0	 3.683326e-12
0	 0	 -4.099790e-12
1.661809e-06	 7.487961e-12	 -3.737611e-12
3.081945e-06	 1.357567e-11	 -2.836942e-12
4.011962e-06	 1.749071e-11	 -1.467066e-12
4.358528e-06	 1.841963e-11	 8.643970e-14
4.011962e-06	 1.666536e-11	 1.579668e-12
3.081945e-06	 1.247739e-11	 2.833631e-12
1.661809e-06	 6.663196e-12	 3.618359e-12
0	 0	 3.920250e-12
-3.708903e-06	 1.716039e-06	 2.953198e-07
-3.708903e-06	 1.716038e-06	 -2.953198e-07
3.708909e-06	 1.716086e-06	 -2.953252e-07
3.708909e-06	 1.716084e-06	 2.953252e-07
0	 0	 4.176453e-07
0	 0	 -4.176452e-07
0	 0	 -4.176529e-07
5.245189e-06	 2.426911e-06	 2.368517e-14
0	 0	 4.176528e-07
-5.245181e-06	 2.426845e-06	 -2.201037e-14
4.925310e-06	 2.484480e-06	 6.081517e-14
-4.925302e-06	 2.484414e-06	 -5.117262e-14
3.482720e-06	 1.756792e-06	 3.601563e-07
0	 0	 5.093285e-07
0	 0	 -5.093284e-07
-3.482714e-06	 1.756746e-06	 3.601496e-07
-3.482714e-06	 1.756745e-06	 -3.601496e-07
0	 0	 -5.093380e-07
0	 0	 5.093378e-07
3.482720e-06	 1.756793e-06	 -3.601563e-07
-3.257364e-06	 1.794381e-06	 -4.248807e-07
3.257369e-06	 1.794427e-06	 4.248886e-07
0	 0	 6.008721e-07
-4.606608e-06	 2.537638e-06	 -8.032179e-14
0	 0	 -6.008719e-07
0	 0	 -6.008833e-07
4.606615e-06	 2.537704e-06	 9.792993e-14
0	 0	 6.008831e-07
-3.257364e-06	 1.794382e-06	 4.248806e-07
3.257369e-06	 1.794428e-06	 -4.248886e-07
-4.090425e-06	 3.212905e-06	 5.634934e-07
-4.090425e-06	 3.212905e-06	 -5.634934e-07
-2.214855e-06	 1.751686e-06	 7.497848e-07
-5.784735e-06	 4.543733e-06	 -5.403350e-15
2.214858e-06	 1.751711e-06	 -7.497910e-07
4.090430e-06	 3.212951e-06	 -5.634980e-07
4.090430e-06	 3.212950e-06	 5.634980e-07
2.214858e-06	 1.751711e-06	 7.497909e-07
-5.347134e-06	 4.228945e-06	 3.105710e-07
-5.347134e-06	 4.228945e-06	 -3.105710e-07
-2.214856e-06	 1.751686e-06	 -7.497847e-07
0	 0	 7.969000e-07
0	 0	 -7.969000e-07
5.784741e-06	 4.543798e-06	 1.404171e-14
0	 0	 -7.969066e-07
5.347140e-06	 4.229004e-06	 3.105736e-07
0	 0	 7.969065e-07
5.347140e-06	 4.229005e-06	 -3.105736e-07
-4.002095e-06	 3.244113e-06	 6.250798e-07
4.002100e-06	 3.244159e-06	 -6.250851e-07
0	 0	 -8.840038e-07
0	 0	 8.840038e-07
-5.659817e-06	 4.587868e-06	 -8.370186e-15
0	 0	 8.839964e-07
0	 0	 -8.839964e-07
-4.002095e-06	 3.244113e-06	 -6.250798e-07
4.002100e-06	 3.244158e-06	 6.250851e-07
5.659824e-06	 4.587933e-06	 2.724446e-14
2.119285e-06	 1.785502e-06	 8.994017e-07
-3.913521e-06	 3.273755e-06	 6.865009e-07
-5.116400e-06	 4.310523e-06	 -3.725412e-07
3.913526e-06	 3.273801e-06	 -6.865067e-07
5.116406e-06	 4.310583e-06	 3.725444e-07
5.116406e-06	 4.310583e-06	 -3.725444e-07
0	 0	 9.708589e-07
-2.119282e-06	 1.785477e-06	 8.993941e-07
-5.534554e-06	 4.629789e-06	 -1.132015e-14
0	 0	 -9.708589e-07
5.534561e-06	 4.629853e-06	 4.034107e-14
0	 0	 -9.708672e-07
2.119285e-06	 1.785502e-06	 -8.994018e-07
0	 0	 9.708671e-07
-5.116400e-06	 4.310523e-06	 3.725412e-07
-2.119282e-06	 1.785477e-06	 -8.993941e-07
-3.913521e-06	 3.273755e-06	 -6.865009e-07
3.913526e-06	 3.273800e-06	 6.865067e-07
0	 0	 1.057661e-06
-3.824141e-06	 3.302862e-06	 7.478795e-07
-3.824141e-06	 3.302862e-06	 -7.478795e-07
0	 0	 -1.057661e-06
0	 0	 -1.057671e-06
3.824147e-06	 3.302907e-06	 7.478860e-07
0	 0	 1.057670e-06
3.824147e-06	 3.302908e-06	 -7.478860e-07
-5.408153e-06	 4.670953e-06	 -1.425434e-14
5.408160e-06	 4.671016e-06	 5.341425e-14
-2.022384e-06	 1.816920e-06	 1.048723e-06
2.022387e-06	 1.816945e-06	 -1.048732e-06
3.734225e-06	 3.330741e-06	 8.093339e-07
2.022387e-06	 1.816944e-06	 1.048732e-06
0	 0	 1.144561e-06
-3.734219e-06	 3.330697e-06	 8.093269e-07
-5.280984e-06	 4.710317e-06	 -1.719363e-14
-4.882467e-06	 4.386433e-06	 -4.343952e-07
-3.734220e-06	 3.330697e-06	 -8.093269e-07
-2.022384e-06	 1.816920e-06	 -1.048723e-06
0	 0	 -1.144561e-06
0	 0	 -1.144571e-06
3.734225e-06	 3.330742e-06	 -8.093339e-07
5.280992e-06	 4.710380e-06	 6.655961e-14
4.882475e-06	 4.386492e-06	 4.343991e-07
0	 0	 1.144571e-06
-4.882467e-06	 4.386433e-06	 4.343952e-07
4.882475e-06	 4.386492e-06	 -4.343990e-07
0	 0	 1.076328e-06
-6.322903e-06	 5.993817e-06	 1.200545e-14
-4.470968e-06	 4.238269e-06	 -7.610786e-07