# vtk DataFile Version 3.0
Unstructured Grid Example
ASCII
DATASET UNSTRUCTURED_GRID
POINTS 832 float
-1	 0	 0
-1	 0	 3.750000e-01
-1	 0	 7.500000e-01
-1	 0	 1.125000e+00
-1	 0	 1.500000e+00
-1	 0	 1.875000e+00
-1	 0	 2.250000e+00
-1	 0	 2.625000e+00
-1	 0	 3
-9.875000e-01	 0	 0
-9.875000e-01	 0	 1.500000e+00
-9.875000e-01	 0	 3
-9.875000e-01	 0	 2.250000e+00
-9.875000e-01	 0	 7.500000e-01
-9.833054e-01	 -1.819631e-01	 7.500000e-01
-9.833054e-01	 -1.819631e-01	 0
-9.833054e-01	 -1.819631e-01	 1.500000e+00
-9.833054e-01	 -1.819631e-01	 3.000000e+00
-9.833054e-01	 1.819631e-01	 2.250000e+00
-9.833054e-01	 1.819631e-01	 0
-9.833054e-01	 1.819631e-01	 1.500000e+00
-9.833054e-01	 1.819631e-01	 3.000000e+00
-9.833054e-01	 1.819631e-01	 7.500000e-01
-9.833054e-01	 -1.819631e-01	 2.250000e+00
-9.750000e-01	 0	 7.500000e-01
-9.750000e-01	 0	 1.125000e+00
-9.750000e-01	 0	 0
-9.750000e-01	 0	 3.750000e-01
-9.750000e-01	 0	 1.875000e+00
-9.750000e-01	 0	 2.625000e+00
-9.750000e-01	 0	 3
-9.750000e-01	 0	 1.500000e+00
-9.750000e-01	 0	 2.250000e+00
-9.625000e-01	 0	 1.500000e+00
-9.625000e-01	 0	 2.250000e+00
-9.625000e-01	 0	 0
-9.625000e-01	 0	 7.500000e-01
-9.625000e-01	 0	 3
-9.587227e-01	 -1.774140e-01	 0
-9.587227e-01	 -1.774140e-01	 3.000000e+00
-9.587227e-01	 -1.774140e-01	 1.500000e+00
-9.587227e-01	 1.774140e-01	 0
-9.587227e-01	 1.774140e-01	 3.000000e+00
-9.587227e-01	 1.774140e-01	 1.500000e+00
-9.587227e-01	 1.774140e-01	 7.500000e-01
-9.587227e-01	 -1.774140e-01	 7.500000e-01
-9.587227e-01	 -1.774140e-01	 2.250000e+00
-9.587227e-01	 1.774140e-01	 2.250000e+00
-9.500000e-01	 0	 0
-9.500000e-01	 0	 3.750000e-01
-9.500000e-01	 0	 1.125000e+00
-9.500000e-01	 0	 1.500000e+00
-9.500000e-01	 0	 1.875000e+00
-9.500000e-01	 0	 2.250000e+00
-9.500000e-01	 0	 2.625000e+00
-9.500000e-01	 0	 3
-9.500000e-01	 0	 7.500000e-01
-9.341401e-01	 -1.728649e-01	 1.500000e+00
-9.341401e-01	 -1.728649e-01	 0
-9.341401e-01	 -1.728649e-01	 3.000000e+00
-9.341401e-01	 1.728649e-01	 2.250000e+00
-9.341401e-01	 1.728649e-01	 0
-9.341401e-01	 1.728649e-01	 1.500000e+00
-9.341401e-01	 1.728649e-01	 3.000000e+00
-9.341401e-01	 -1.728649e-01	 7.500000e-01
-9.341401e-01	 -1.728649e-01	 2.250000e+00
-9.341401e-01	 1.728649e-01	 7.500000e-01
-9.297883e-01	 -3.680947e-01	 1.125000e+00
-9.297883e-01	 -3.680947e-01	 0
-9.297883e-01	 -3.680947e-01	 7.500000e-01
-9.297883e-01	 -3.680947e-01	 1.500000e+00
-9.297883e-01	 -3.680947e-01	 1.875000e+00
-9.297883e-01	 -3.680947e-01	 2.250000e+00
-9.297883e-01	 -3.680947e-01	 2.625000e+00
-9.297883e-01	 -3.680947e-01	 3.000000e+00
-9.297883e-01	 -3.680947e-01	 3.750000e-01
-9.297883e-01	 3.680947e-01	 3.750000e-01
-9.297883e-01	 3.680947e-01	 2.250000e+00
-9.297883e-01	 3.680947e-01	 2.625000e+00
-9.297883e-01	 3.680947e-01	 0
-9.297883e-01	 3.680947e-01	 7.500000e-01
-9.297883e-01	 3.680947e-01	 1.500000e+00
-9.297883e-01	 3.680947e-01	 1.875000e+00
-9.297883e-01	 3.680947e-01	 3.000000e+00
-9.297883e-01	 3.680947e-01	 1.125000e+00
-9.181659e-01	 3.634935e-01	 7.500000e-01
-9.181659e-01	 -3.634935e-01	 0
-9.181659e-01	 -3.634935e-01	 7.500000e-01
-9.181659e-01	 -3.634935e-01	 2.250000e+00
-9.181659e-01	 -3.634935e-01	 3
-9.181659e-01	 3.634935e-01	 0
-9.181659e-01	 3.634935e-01	 2.250000e+00
-9.181659e-01	 3.634935e-01	 3
-9.181659e-01	 -3.634935e-01	 1.500000e+00
-9.181659e-01	 3.634935e-01	 1.500000e+00
-9.065436e-01	 -3.588923e-01	 1.125000e+00
-9.065436e-01	 -3.588923e-01	 2.625000e+00
-9.065436e-01	 -3.588923e-01	 0
-9.065436e-01	 -3.588923e-01	 3.750000e-01
-9.065436e-01	 -3.588923e-01	 1.500000e+00
-9.065436e-01	 -3.588923e-01	 3
-9.065436e-01	 3.588923e-01	 2.625000e+00
-9.065436e-01	 3.588923e-01	 1.125000e+00
-9.065436e-01	 3.588923e-01	 0
-9.065436e-01	 3.588923e-01	 3.750000e-01
-9.065436e-01	 3.588923e-01	 3
-9.065436e-01	 -3.588923e-01	 7.500000e-01
-9.065436e-01	 -3.588923e-01	 1.875000e+00
-9.065436e-01	 3.588923e-01	 1.875000e+00
-9.065436e-01	 3.588923e-01	 1.500000e+00
-9.065436e-01	 -3.588923e-01	 2.250000e+00
-9.065436e-01	 3.588923e-01	 7.500000e-01
-9.065436e-01	 3.588923e-01	 2.250000e+00
-8.949212e-01	 3.542912e-01	 1.500000e+00
-8.949212e-01	 -3.542912e-01	 1.500000e+00
-8.949212e-01	 -3.542912e-01	 0
-8.949212e-01	 -3.542912e-01	 3.000000e+00
-8.949212e-01	 3.542912e-01	 0
-8.949212e-01	 3.542912e-01	 3.000000e+00
-8.949212e-01	 -3.542912e-01	 2.250000e+00
-8.949212e-01	 -3.542912e-01	 7.500000e-01
-8.949212e-01	 3.542912e-01	 2.250000e+00
-8.949212e-01	 3.542912e-01	 7.500000e-01
-8.832989e-01	 -3.496900e-01	 1.125000e+00
-8.832989e-01	 -3.496900e-01	 1.875000e+00
-8.832989e-01	 -3.496900e-01	 2.625000e+00
-8.832989e-01	 -3.496900e-01	 2.250000e+00
-8.832989e-01	 3.496900e-01	 1.125000e+00
-8.832989e-01	 -3.496900e-01	 0
-8.832989e-01	 -3.496900e-01	 3.000000e+00
-8.832989e-01	 -3.496900e-01	 3.750000e-01
-8.832989e-01	 -3.496900e-01	 7.500000e-01
-8.832989e-01	 3.496900e-01	 3.750000e-01
-8.832989e-01	 3.496900e-01	 7.500000e-01
-8.832989e-01	 3.496900e-01	 2.250000e+00
-8.832989e-01	 3.496900e-01	 2.625000e+00
-8.832989e-01	 3.496900e-01	 0
-8.832989e-01	 3.496900e-01	 1.875000e+00
-8.832989e-01	 3.496900e-01	 3.000000e+00
-8.832989e-01	 -3.496900e-01	 1.500000e+00
-8.832989e-01	 3.496900e-01	 1.500000e+00
-8.369955e-01	 -5.472098e-01	 0
-8.369955e-01	 -5.472098e-01	 7.500000e-01
-8.369955e-01	 -5.472098e-01	 1.500000e+00
-8.369955e-01	 -5.472098e-01	 2.250000e+00
-8.369955e-01	 -5.472098e-01	 3
-8.369955e-01	 5.472098e-01	 0
-8.369955e-01	 5.472098e-01	 7.500000e-01
-8.369955e-01	 5.472098e-01	 1.500000e+00
-8.369955e-01	 5.472098e-01	 2.250000e+00
-8.369955e-01	 5.472098e-01	 3
-8.160706e-01	 -5.335295e-01	 7.500000e-01
-8.160706e-01	 5.335295e-01	 7.500000e-01
-8.160706e-01	 -5.335295e-01	 1.500000e+00
-8.160706e-01	 -5.335295e-01	 2.250000e+00
-8.160706e-01	 5.335295e-01	 1.500000e+00
-8.160706e-01	 5.335295e-01	 2.250000e+00
-8.160706e-01	 -5.335295e-01	 0
-8.160706e-01	 -5.335295e-01	 3.000000e+00
-8.160706e-01	 5.335295e-01	 0
-8.160706e-01	 5.335295e-01	 3.000000e+00
-7.951457e-01	 -5.198493e-01	 7.500000e-01
-7.951457e-01	 5.198493e-01	 7.500000e-01
-7.951457e-01	 -5.198493e-01	 0
-7.951457e-01	 -5.198493e-01	 1.500000e+00
-7.951457e-01	 -5.198493e-01	 2.250000e+00
-7.951457e-01	 -5.198493e-01	 3
-7.951457e-01	 5.198493e-01	 0
-7.951457e-01	 5.198493e-01	 1.500000e+00
-7.951457e-01	 5.198493e-01	 2.250000e+00
-7.951457e-01	 5.198493e-01	 3
-7.071068e-01	 -7.071068e-01	 0
-7.071068e-01	 -7.071068e-01	 3.750000e-01
-7.071068e-01	 -7.071068e-01	 7.500000e-01
-7.071068e-01	 -7.071068e-01	 1.125000e+00
-7.071068e-01	 -7.071068e-01	 1.500000e+00
-7.071068e-01	 -7.071068e-01	 1.875000e+00
-7.071068e-01	 -7.071068e-01	 2.250000e+00
-7.071068e-01	 -7.071068e-01	 2.625000e+00
-7.071068e-01	 -7.071068e-01	 3.000000e+00
-7.071068e-01	 7.071068e-01	 0
-7.071068e-01	 7.071068e-01	 3.750000e-01
-7.071068e-01	 7.071068e-01	 7.500000e-01
-7.071068e-01	 7.071068e-01	 1.125000e+00
-7.071068e-01	 7.071068e-01	 1.500000e+00
-7.071068e-01	 7.071068e-01	 1.875000e+00
-7.071068e-01	 7.071068e-01	 2.250000e+00
-7.071068e-01	 7.071068e-01	 2.625000e+00
-7.071068e-01	 7.071068e-01	 3.000000e+00
-6.982679e-01	 -6.982679e-01	 7.500000e-01
-6.982679e-01	 6.982679e-01	 7.500000e-01
-6.982679e-01	 -6.982679e-01	 0
-6.982679e-01	 -6.982679e-01	 2.250000e+00
-6.982679e-01	 -6.982679e-01	 3.000000e+00
-6.982679e-01	 6.982679e-01	 0
-6.982679e-01	 6.982679e-01	 2.250000e+00
-6.982679e-01	 6.982679e-01	 3.000000e+00
-6.982679e-01	 -6.982679e-01	 1.500000e+00
-6.982679e-01	 6.982679e-01	 1.500000e+00
-6.894291e-01	 -6.894291e-01	 3.750000e-01
-6.894291e-01	 -6.894291e-01	 2.625000e+00
-6.894291e-01	 -6.894291e-01	 0
-6.894291e-01	 -6.894291e-01	 1.500000e+00
-6.894291e-01	 -6.894291e-01	 2.250000e+00
-6.894291e-01	 -6.894291e-01	 3.000000e+00
-6.894291e-01	 6.894291e-01	 3.750000e-01
-6.894291e-01	 6.894291e-01	 2.625000e+00
-6.894291e-01	 -6.894291e-01	 1.875000e+00
-6.894291e-01	 6.894291e-01	 1.875000e+00
-6.894291e-01	 -6.894291e-01	 7.500000e-01
-6.894291e-01	 -6.894291e-01	 1.125000e+00
-6.894291e-01	 6.894291e-01	 0
-6.894291e-01	 6.894291e-01	 1.500000e+00
-6.894291e-01	 6.894291e-01	 2.250000e+00
-6.894291e-01	 6.894291e-01	 3.000000e+00
-6.894291e-01	 6.894291e-01	 7.500000e-01
-6.894291e-01	 6.894291e-01	 1.125000e+00
-6.805903e-01	 6.805903e-01	 7.500000e-01
-6.805903e-01	 -6.805903e-01	 7.500000e-01
-6.805903e-01	 -6.805903e-01	 0
-6.805903e-01	 -6.805903e-01	 1.500000e+00
-6.805903e-01	 -6.805903e-01	 3.000000e+00
-6.805903e-01	 6.805903e-01	 0
-6.805903e-01	 6.805903e-01	 1.500000e+00
-6.805903e-01	 6.805903e-01	 3.000000e+00
-6.805903e-01	 6.805903e-01	 2.250000e+00
-6.805903e-01	 -6.805903e-01	 2.250000e+00
-6.717514e-01	 -6.717514e-01	 2.625000e+00
-6.717514e-01	 6.717514e-01	 2.625000e+00
-6.717514e-01	 -6.717514e-01	 0
-6.717514e-01	 -6.717514e-01	 3.750000e-01
-6.717514e-01	 -6.717514e-01	 7.500000e-01
-6.717514e-01	 -6.717514e-01	 1.125000e+00
-6.717514e-01	 -6.717514e-01	 1.875000e+00
-6.717514e-01	 -6.717514e-01	 3.000000e+00
-6.717514e-01	 -6.717514e-01	 2.250000e+00
-6.717514e-01	 6.717514e-01	 1.500000e+00
-6.717514e-01	 6.717514e-01	 0
-6.717514e-01	 6.717514e-01	 3.750000e-01
-6.717514e-01	 6.717514e-01	 7.500000e-01
-6.717514e-01	 6.717514e-01	 1.125000e+00
-6.717514e-01	 6.717514e-01	 1.875000e+00
-6.717514e-01	 6.717514e-01	 3.000000e+00
-6.717514e-01	 -6.717514e-01	 1.500000e+00
-6.717514e-01	 6.717514e-01	 2.250000e+00
-5.472098e-01	 -8.369955e-01	 0
-5.472098e-01	 -8.369955e-01	 7.500000e-01
-5.472098e-01	 -8.369955e-01	 1.500000e+00
-5.472098e-01	 -8.369955e-01	 2.250000e+00
-5.472098e-01	 -8.369955e-01	 3
-5.472098e-01	 8.369955e-01	 0
-5.472098e-01	 8.369955e-01	 7.500000e-01
-5.472098e-01	 8.369955e-01	 1.500000e+00
-5.472098e-01	 8.369955e-01	 2.250000e+00
-5.472098e-01	 8.369955e-01	 3
-5.335295e-01	 -8.160706e-01	 1.500000e+00
-5.335295e-01	 -8.160706e-01	 2.250000e+00
-5.335295e-01	 8.160706e-01	 0
-5.335295e-01	 8.160706e-01	 3.000000e+00
[...]
POINT_DATA 832
VECTORS displacement float
0	 0	 -2.464908e-05
-5.253673e-05	 9.499363e-10	 -2.259615e-05
-9.652873e-05	 1.763352e-09	 -1.742953e-05
-1.268349e-04	 2.288503e-09	 -9.359633e-06
-1.365122e-04	 2.486715e-09	 -1.656125e-12
-1.268349e-04	 2.281638e-09	 9.359631e-06
-9.652875e-05	 1.753388e-09	 1.742953e-05
-5.253674e-05	 9.430688e-10	 2.259615e-05
0	 0	 2.464909e-05
0	 0	 -2.277301e-05
-1.367304e-04	 2.717611e-09	 -1.352005e-12
0	 0	 2.277301e-05
-9.668303e-05	 1.915992e-09	 1.610295e-05
-9.668301e-05	 1.927285e-09	 -1.610295e-05
-9.149242e-05	 -4.020262e-07	 -1.635090e-05
0	 0	 -2.312367e-05
-1.293898e-04	 -5.685594e-07	 -3.105655e-12
0	 0	 2.312367e-05
-9.149665e-05	 4.060142e-07	 1.635156e-05
0	 0	 -2.312459e-05
-1.293958e-04	 5.741986e-07	 9.045028e-14
0	 0	 2.312459e-05
-9.149665e-05	 4.060252e-07	 -1.635156e-05
-9.149245e-05	 -4.020382e-07	 1.635090e-05
-9.680588e-05	 2.090681e-09	 -1.477801e-05
-1.271655e-04	 2.717534e-09	 -8.022288e-06
0	 0	 -2.089927e-05
-5.267366e-05	 1.128226e-09	 -1.936751e-05
-1.271655e-04	 2.708690e-09	 8.022287e-06
-5.267367e-05	 1.119378e-09	 1.936752e-05
0	 0	 2.089927e-05
-1.369042e-04	 2.947753e-09	 -1.049023e-12
-9.680590e-05	 2.078064e-09	 1.477801e-05
-1.370471e-04	 3.175802e-09	 -7.454381e-13
-9.690697e-05	 2.238665e-09	 1.345143e-05
0	 0	 -1.902319e-05
-9.690695e-05	 2.252590e-09	 -1.345143e-05
0	 0	 1.902319e-05
0	 0	 -1.963894e-05
0	 0	 1.963894e-05
-1.299671e-04	 1.335227e-06	 -1.976726e-12
0	 0	 -1.963967e-05
0	 0	 1.963967e-05
-1.299730e-04	 -1.328895e-06	 2.537689e-14
-9.190476e-05	 -9.396637e-07	 -1.388735e-05
-9.190061e-05	 9.441551e-07	 -1.388683e-05
-9.190064e-05	 9.441416e-07	 1.388683e-05
-9.190476e-05	 -9.396773e-07	 1.388735e-05
0	 0	 -1.714198e-05
-5.274679e-05	 1.305297e-09	 -1.613119e-05
-1.273420e-04	 3.143631e-09	 -6.681759e-06
-1.371406e-04	 3.405299e-09	 -4.398338e-13
-1.273420e-04	 3.132816e-09	 6.681758e-06
-9.697306e-05	 2.400282e-09	 1.212121e-05
-5.274681e-05	 1.294478e-09	 1.613119e-05
0	 0	 1.714198e-05
-9.697304e-05	 2.415530e-09	 -1.212121e-05
-1.304061e-04	 3.278154e-06	 -8.459409e-13
0	 0	 -1.615157e-05
0	 0	 1.615157e-05
-9.221504e-05	 -2.313043e-06	 1.142127e-05
0	 0	 -1.615212e-05
-1.304118e-04	 -3.271126e-06	 -4.003118e-14
0	 0	 1.615212e-05
-9.221099e-05	 2.318012e-06	 -1.142089e-05
-9.221103e-05	 2.317997e-06	 1.142089e-05
-9.221504e-05	 -2.313027e-06	 -1.142127e-05
-9.961557e-05	 4.089566e-06	 -6.790879e-06
0	 0	 -1.788092e-05
-7.591095e-05	 3.395095e-06	 -1.264372e-05
-1.073543e-04	 4.801379e-06	 -3.663650e-12
-9.961560e-05	 4.089555e-06	 6.790874e-06
-7.591100e-05	 3.395080e-06	 1.264372e-05
-4.126214e-05	 1.693946e-06	 1.639463e-05
0	 0	 1.788092e-05
-4.126211e-05	 1.693957e-06	 -1.639462e-05
-4.126606e-05	 -1.691225e-06	 -1.639613e-05
-7.591814e-05	 -3.390090e-06	 1.264488e-05
-4.126604e-05	 -1.691237e-06	 1.639612e-05
0	 0	 -1.788256e-05
-7.591816e-05	 -3.390073e-06	 -1.264488e-05
-1.073645e-04	 -4.794299e-06	 1.823644e-12
-9.962505e-05	 -4.082998e-06	 6.791498e-06
0	 0	 1.788256e-05
-9.962506e-05	 -4.082986e-06	 -6.791496e-06
-7.650364e-05	 -4.579894e-06	 -1.169097e-05
0	 0	 -1.653206e-05
-7.649647e-05	 4.585069e-06	 -1.168993e-05
-7.649651e-05	 4.585054e-06	 1.168993e-05
0	 0	 1.653206e-05
0	 0	 -1.653353e-05
-7.650362e-05	 -4.579912e-06	 1.169097e-05
0	 0	 1.653353e-05
-1.081824e-04	 6.484256e-06	 -2.977289e-12
-1.081925e-04	 -6.476961e-06	 1.459918e-12
-1.011070e-04	 7.234452e-06	 -5.829445e-06
-4.187992e-05	 2.996600e-06	 1.407352e-05
0	 0	 -1.518439e-05
-4.187989e-05	 2.996612e-06	 -1.407352e-05
-1.089849e-04	 8.176066e-06	 -2.293829e-12
0	 0	 1.518439e-05
-4.188378e-05	 -2.993730e-06	 1.407473e-05
-1.011164e-04	 -7.227480e-06	 -5.829945e-06
0	 0	 -1.518570e-05
-4.188379e-05	 -2.993716e-06	 -1.407474e-05
0	 0	 1.518570e-05
-7.706396e-05	 5.781359e-06	 -1.073698e-05
-1.011071e-04	 7.234441e-06	 5.829442e-06
-1.011164e-04	 -7.227494e-06	 5.829947e-06
-1.089950e-04	 -8.168559e-06	 1.097944e-12
-7.706400e-05	 5.781344e-06	 1.073698e-05
-7.707108e-05	 -5.776034e-06	 -1.073791e-05
-7.707106e-05	 -5.776053e-06	 1.073791e-05
-1.097772e-04	 -9.854143e-06	 7.357693e-13
-1.097672e-04	 9.861859e-06	 -1.609452e-12
0	 0	 -1.383487e-05
0	 0	 1.383488e-05
0	 0	 -1.383602e-05
0	 0	 1.383602e-05
-7.761717e-05	 6.973379e-06	 9.782733e-06
-7.761713e-05	 6.973395e-06	 -9.782733e-06
-7.762419e-05	 -6.967941e-06	 9.783541e-06
-7.762420e-05	 -6.967921e-06	 -9.783542e-06
-1.025083e-04	 1.039902e-05	 -4.865434e-06
-1.025083e-04	 1.039900e-05	 4.865432e-06
-4.246034e-05	 4.307405e-06	 1.174619e-05
-7.815289e-05	 8.178977e-06	 8.826037e-06
-1.025175e-04	 -1.039166e-05	 -4.865817e-06
0	 0	 -1.248190e-05
0	 0	 1.248190e-05
-4.246031e-05	 4.307417e-06	 -1.174619e-05
-7.815285e-05	 8.178993e-06	 -8.826037e-06
-4.246415e-05	 -4.304363e-06	 -1.174712e-05
-7.815987e-05	 -8.173372e-06	 -8.826728e-06
-7.815985e-05	 -8.173393e-06	 8.826728e-06
-4.246414e-05	 -4.304378e-06	 1.174712e-05
0	 0	 -1.248288e-05
-1.025175e-04	 -1.039168e-05	 4.865817e-06
0	 0	 1.248288e-05
-1.105249e-04	 1.156683e-05	 -9.202427e-13
-1.105347e-04	 -1.155891e-05	 3.709912e-13
0	 0	 -9.896915e-06
-5.460050e-05	 1.390457e-05	 -6.998178e-06
-7.721680e-05	 1.966402e-05	 -3.313914e-12
-5.460054e-05	 1.390455e-05	 6.998178e-06
0	 0	 9.896921e-06
0	 0	 -9.898892e-06
-5.460868e-05	 -1.389878e-05	 -6.999571e-06
-7.722831e-05	 -1.965586e-05	 3.065108e-12
-5.460865e-05	 -1.389880e-05	 6.999571e-06
0	 0	 9.898886e-06
-5.643604e-05	 1.659291e-05	 -5.956110e-06
-5.644424e-05	 -1.658714e-05	 -5.957233e-06
-7.981264e-05	 2.346591e-05	 -2.126644e-12
-5.643608e-05	 1.659290e-05	 5.956110e-06
-7.982418e-05	 -2.345778e-05	 1.915304e-12
-5.644421e-05	 -1.658716e-05	 5.957233e-06
0	 0	 -8.423210e-06
0	 0	 8.423214e-06
0	 0	 -8.424801e-06
0	 0	 8.424797e-06
-5.824883e-05	 1.931927e-05	 -4.913405e-06
-5.825703e-05	 -1.931352e-05	 -4.914257e-06
0	 0	 -6.948604e-06
-8.237631e-05	 2.732157e-05	 -9.383371e-13
-5.824887e-05	 1.931926e-05	 4.913405e-06
0	 0	 6.948605e-06
0	 0	 -6.949810e-06
-8.238786e-05	 -2.731347e-05	 7.642746e-13
-5.825700e-05	 -1.931355e-05	 4.914257e-06
0	 0	 6.949808e-06
0	 0	 1.257896e-09
-1.729108e-05	 1.729615e-05	 1.151615e-09
-3.207106e-05	 3.208035e-05	 8.883817e-10
-4.174436e-05	 4.175659e-05	 4.755728e-10
-4.535535e-05	 4.536846e-05	 -1.575660e-12
-4.174438e-05	 4.175659e-05	 -4.777011e-10
-3.207108e-05	 3.208034e-05	 -8.885383e-10
-1.729109e-05	 1.729614e-05	 -1.149798e-09
0	 0	 -1.255052e-09
0	 0	 -4.504013e-10
-1.729478e-05	 -1.729344e-05	 -4.122891e-10
-3.207786e-05	 -3.207539e-05	 -3.163195e-10
-4.175328e-05	 -4.175006e-05	 -1.679624e-10
-4.536492e-05	 -4.536148e-05	 3.020217e-12
-4.175326e-05	 -4.175008e-05	 1.718485e-10
-3.207783e-05	 -3.207542e-05	 3.161515e-10
-1.729476e-05	 -1.729345e-05	 4.080673e-10
0	 0	 4.440258e-10
-3.339062e-05	 3.339992e-05	 7.985701e-10
-3.339755e-05	 -3.339508e-05	 -2.926759e-10
0	 0	 1.130593e-09
-3.339064e-05	 3.339992e-05	 -7.987261e-10
0	 0	 -1.128326e-09
0	 0	 -4.163754e-10
-3.339752e-05	 -3.339510e-05	 2.925078e-10
0	 0	 4.111853e-10
-4.722148e-05	 4.723462e-05	 -1.288001e-12
-4.723124e-05	 -4.722779e-05	 2.427502e-12
-1.872403e-05	 1.872912e-05	 9.313554e-10
-1.872405e-05	 1.872912e-05	 -9.302123e-10
0	 0	 1.003649e-09
-4.908684e-05	 4.909999e-05	 -1.002083e-12
-3.470965e-05	 3.471894e-05	 -7.091654e-10
0	 0	 -1.001955e-09
-1.872788e-05	 -1.872653e-05	 -3.540388e-10
-1.872786e-05	 -1.872655e-05	 3.511533e-10
-4.520385e-05	 4.521609e-05	 -3.862700e-10
-4.521307e-05	 -4.520988e-05	 1.473271e-10
-3.470962e-05	 3.471894e-05	 7.090100e-10
-4.520383e-05	 4.521610e-05	 3.848163e-10
0	 0	 -3.823826e-10
-4.909678e-05	 -4.909333e-05	 1.837630e-12
-3.471665e-05	 -3.471424e-05	 2.688856e-10
0	 0	 3.783723e-10
-3.471668e-05	 -3.471421e-05	 -2.690537e-10
-4.521309e-05	 -4.520986e-05	 -1.447773e-10
-3.602812e-05	 -3.602565e-05	 -2.454091e-10
-3.602093e-05	 3.603026e-05	 6.193503e-10
0	 0	 8.765632e-10
-5.094131e-05	 5.095448e-05	 -7.159438e-13
0	 0	 -8.754423e-10
0	 0	 -3.483576e-10
-5.095143e-05	 -5.094798e-05	 1.247198e-12
0	 0	 3.455282e-10
-3.602809e-05	 -3.602567e-05	 2.452410e-10
-3.602096e-05	 3.603026e-05	 -6.195051e-10
-2.015180e-05	 2.015688e-05	 -7.101472e-10
-2.015574e-05	 -2.015443e-05	 2.941128e-10
0	 0	 7.489730e-10
-2.015178e-05	 2.015688e-05	 7.106132e-10
-3.733705e-05	 3.734638e-05	 5.293356e-10
-4.865072e-05	 4.866300e-05	 2.938618e-10
-4.865074e-05	 4.866300e-05	 -2.946385e-10
0	 0	 -7.484305e-10
-3.733707e-05	 3.734638e-05	 -5.294899e-10
-5.281288e-05	 -5.280942e-05	 6.523061e-13
0	 0	 -3.142423e-10
-2.015577e-05	 -2.015442e-05	 -2.956571e-10
-3.734436e-05	 -3.734189e-05	 -2.217038e-10
-4.866031e-05	 -4.865708e-05	 -1.215412e-10
-4.866029e-05	 -4.865710e-05	 1.227499e-10
0	 0	 3.126026e-10
-5.280258e-05	 5.281575e-05	 -4.273365e-13
-3.734433e-05	 -3.734191e-05	 2.215357e-10
0	 0	 9.899100e-06
-1.389654e-05	 5.460873e-05	 6.999721e-06
-1.965268e-05	 7.722842e-05	 6.868825e-13
-1.389654e-05	 5.460874e-05	 -6.999721e-06
0	 0	 -9.899102e-06
0	 0	 9.898059e-06
-1.390110e-05	 -5.460635e-05	 6.998986e-06
-1.965911e-05	 -7.722505e-05	 2.035302e-12
-1.390108e-05	 -5.460637e-05	 -6.998986e-06
0	 0	 -9.898063e-06
-2.345409e-05	 7.982396e-05	 4.107722e-13
-1.658455e-05	 5.644407e-05	 -5.957348e-06
0	 0	 8.424094e-06
0	 0	 -8.424097e-06
-2.346108e-05	 -7.982095e-05	 1.244872e-12
-1.658948e-05	 -5.644195e-05	 -5.956735e-06
-1.658454e-05	 5.644406e-05	 5.957348e-06
0	 0	 8.424961e-06
0	 0	 -8.424962e-06
-1.658950e-05	 -5.644193e-05	 5.956735e-06
-1.931593e-05	 -5.825474e-05	 4.913847e-06
-1.931056e-05	 5.825661e-05	 4.914337e-06
0	 0	 6.949922e-06
-2.730927e-05	 8.238730e-05	 1.341713e-13
-1.931058e-05	 5.825663e-05	 -4.914337e-06
0	 0	 -6.949923e-06
0	 0	 6.949228e-06
-2.731683e-05	 -8.238466e-05	 4.536912e-13
-1.931590e-05	 -5.825476e-05	 -4.913847e-06
0	 0	 -6.949229e-06
-4.082267e-06	 9.962090e-05	 6.791325e-06
-4.085617e-06	 -9.962269e-05	 6.791262e-06
0	 0	 1.788209e-05
-3.389506e-06	 7.591498e-05	 1.264455e-05
-4.793483e-06	 1.073600e-04	 2.816857e-12
-4.082264e-06	 9.962092e-05	 -6.791321e-06
0	 0	 -1.788210e-05
0	 0	 1.788194e-05
-3.392091e-06	 -7.591636e-05	 1.264444e-05
-4.797134e-06	 -1.073619e-04	 2.566228e-14
-4.085610e-06	 -9.962269e-05	 -6.791262e-06
-3.392081e-06	 -7.591635e-05	 -1.264444e-05
-1.692313e-06	 -4.126507e-05	 -1.639556e-05
0	 0	 -1.788194e-05
-1.690931e-06	 4.126432e-05	 1.639570e-05
-3.389502e-06	 7.591502e-05	 -1.264455e-05
-1.690928e-06	 4.126434e-05	 -1.639571e-05
-1.692320e-06	 -4.126507e-05	 1.639556e-05
-6.475840e-06	 1.081879e-04	 2.263325e-12
-6.479861e-06	 -1.081899e-04	 -4.150921e-15
-4.579112e-06	 7.650037e-05	 1.169068e-05
0	 0	 1.653312e-05
-4.579109e-06	 7.650040e-05	 -1.169068e-05
0	 0	 -1.653313e-05
0	 0	 1.653296e-05
-4.581960e-06	 -7.650184e-05	 1.169057e-05
-4.581948e-06	 -7.650184e-05	 -1.169057e-05
0	 0	 -1.653296e-05
-5.775035e-06	 7.706776e-05	 -1.073766e-05
-5.778133e-06	 -7.706930e-05	 -1.073754e-05
-7.230232e-06	 -1.011141e-04	 5.829744e-06
-2.994854e-06	 -4.188282e-05	 -1.407425e-05
0	 0	 1.518534e-05
-2.993189e-06	 4.188196e-05	 1.407440e-05
0	 0	 -1.518534e-05
-8.167134e-06	 1.089902e-04	 1.711744e-12
0	 0	 1.518517e-05
-2.994863e-06	 -4.188282e-05	 1.407425e-05
-8.171523e-06	 -1.089924e-04	 -3.314249e-14
0	 0	 -1.518517e-05
-7.226197e-06	 1.011120e-04	 5.829811e-06
-7.226196e-06	 1.011120e-04	 -5.829808e-06
-5.775036e-06	 7.706772e-05	 1.073766e-05
-5.778146e-06	 -7.706930e-05	 1.073754e-05
-7.230223e-06	 -1.011141e-04	 -5.829744e-06
-2.993188e-06	 4.188198e-05	 -1.407441e-05
-9.852416e-06	 1.097724e-04	 1.159034e-12
-6.966711e-06	 7.762080e-05	 -9.783328e-06
-6.970065e-06	 -7.762244e-05	 -9.783203e-06
0	 0	 1.383554e-05
0	 0	 -1.383554e-05
-9.857171e-06	 -1.097747e-04	 -6.177993e-14
0	 0	 1.383571e-05
0	 0	 -1.383572e-05
-6.966710e-06	 7.762076e-05	 9.783328e-06
-6.970080e-06	 -7.762244e-05	 9.783203e-06
-1.038982e-05	 1.025129e-04	 4.865719e-06
0	 0	 1.248263e-05
-1.038982e-05	 1.025129e-04	 -4.865718e-06
0	 0	 -1.248263e-05
-1.155688e-05	 1.105298e-04	 6.026189e-13
0	 0	 1.248245e-05
0	 0	 -1.248245e-05
-1.039453e-05	 -1.025152e-04	 4.865648e-06
-1.039452e-05	 -1.025152e-04	 -4.865649e-06
-4.305549e-06	 -4.246320e-05	 -1.174671e-05
-4.303603e-06	 4.246222e-05	 1.174688e-05
-8.171946e-06	 7.815633e-05	 8.826552e-06
-8.171947e-06	 7.815637e-05	 -8.826552e-06
-4.303603e-06	 4.246225e-05	 -1.174688e-05
-1.156200e-05	 -1.105323e-04	 -9.116874e-14
-4.305560e-06	 -4.246320e-05	 1.174671e-05
-8.175560e-06	 -7.815812e-05	 -8.826423e-06
-8.175577e-06	 -7.815812e-05	 8.826422e-06
4.059351e-07	 9.149067e-05	 1.635086e-05
4.042583e-07	 -9.149565e-05	 1.635132e-05
0	 0	 2.312361e-05
5.740840e-07	 1.293874e-04	 4.218113e-12
0	 0	 -2.312362e-05
0	 0	 2.312426e-05
5.717102e-07	 -1.293944e-04	 -2.037188e-12
0	 0	 -2.312426e-05
4.059423e-07	 9.149072e-05	 -1.635086e-05
4.042620e-07	 -9.149563e-05	 -1.635132e-05
-9.395030e-07	 9.189872e-05	 1.388681e-05
0	 0	 1.963892e-05
0	 0	 -1.963892e-05
-9.415497e-07	 -9.190378e-05	 1.388715e-05
-9.415433e-07	 -9.190375e-05	 -1.388715e-05
0	 0	 1.963939e-05
0	 0	 -1.963939e-05
-9.394969e-07	 9.189878e-05	 -1.388681e-05
-1.331548e-06	 -1.299716e-04	 -1.330437e-12
-1.328654e-06	 1.299645e-04	 2.613577e-12
-3.273944e-06	 -1.304104e-04	 -6.236434e-13
0	 0	 1.615159e-05
-3.270522e-06	 1.304032e-04	 1.007470e-12
0	 0	 -1.615159e-05
0	 0	 1.615189e-05
0	 0	 -1.615189e-05
-2.312606e-06	 9.220902e-05	 -1.142090e-05
-2.312611e-06	 9.220897e-05	 1.142090e-05
-2.315033e-06	 -9.221408e-05	 1.142111e-05
-2.315024e-06	 -9.221406e-05	 -1.142111e-05
0	 0	 2.464794e-05
9.601830e-10	 5.253294e-05	 2.259510e-05
1.784505e-09	 9.652179e-05	 1.742873e-05
2.320530e-09	 1.268258e-04	 9.359202e-06
2.527198e-09	 1.365025e-04	 4.046256e-12
2.323983e-09	 1.268258e-04	 -9.359197e-06
1.789491e-09	 9.652185e-05	 -1.742873e-05
9.636355e-10	 5.253298e-05	 -2.259511e-05
0	 0	 -2.464795e-05
0	 0	 2.277200e-05
2.762027e-09	 1.367206e-04	 3.246238e-12
0	 0	 -2.277200e-05
1.955813e-09	 9.667611e-05	 -1.610224e-05
1.950286e-09	 9.667606e-05	 1.610224e-05
2.115527e-09	 9.679892e-05	 1.477740e-05
2.755480e-09	 1.271563e-04	 8.021953e-06
0	 0	 2.089839e-05
1.140116e-09	 5.266985e-05	 1.936670e-05
2.759727e-09	 1.271563e-04	 -8.021949e-06
1.144361e-09	 5.266989e-05	 -1.936670e-05
0	 0	 -2.089840e-05
2.996092e-09	 1.368944e-04	 2.450553e-12
2.121593e-09	 9.679897e-05	 -1.477740e-05
3.228025e-09	 1.370373e-04	 1.653314e-12
2.285862e-09	 9.690004e-05	 -1.345090e-05
0	 0	 1.902245e-05
2.279264e-09	 9.689999e-05	 1.345090e-05
0	 0	 -1.902245e-05
0	 0	 1.714137e-05
1.318813e-09	 5.274299e-05	 1.613061e-05
3.187446e-09	 1.273329e-04	 6.681519e-06
3.461429e-09	 1.371308e-04	 8.497437e-13
3.192484e-09	 1.273329e-04	 -6.681518e-06
2.451175e-09	 9.696613e-05	 -1.212078e-05
1.323849e-09	 5.274303e-05	 -1.613061e-05
0	 0	 -1.714137e-05
2.444038e-09	 9.696608e-05	 1.212078e-05
4.621993e-10	 -9.697300e-05	 1.212120e-05
0	 0	 1.714197e-05
2.485343e-10	 -5.274677e-05	 1.613119e-05
6.034684e-10	 -1.273420e-04	 6.681756e-06
6.585767e-10	 -1.371405e-04	 -8.266767e-13
6.083851e-10	 -1.273419e-04	 -6.681757e-06
4.691847e-10	 -9.697296e-05	 -1.212120e-05
2.534482e-10	 -5.274674e-05	 -1.613119e-05
0	 0	 -1.714197e-05
0	 0	 1.902319e-05
3.692000e-10	 -9.690690e-05	 1.345142e-05
0	 0	 -1.902318e-05
5.264582e-10	 -1.370470e-04	 -1.446423e-12
3.753408e-10	 -9.690686e-05	 -1.345142e-05
3.953647e-10	 -1.369041e-04	 -2.061047e-12
2.822270e-10	 -9.680579e-05	 -1.477801e-05
0	 0	 2.089926e-05
1.479677e-10	 -5.267364e-05	 1.936751e-05
3.635520e-10	 -1.271654e-04	 -8.022286e-06
1.516841e-10	 -5.267361e-05	 -1.936751e-05
0	 0	 -2.089926e-05
2.769203e-10	 -9.680583e-05	 1.477801e-05
3.598329e-10	 -1.271654e-04	 8.022283e-06
1.835995e-10	 -9.668296e-05	 1.610294e-05
1.880636e-10	 -9.668292e-05	 -1.610294e-05
0	 0	 2.277300e-05
2.627929e-10	 -1.367303e-04	 -2.674502e-12
0	 0	 -2.277299e-05
0	 0	 2.464908e-05
4.648408e-11	 -5.253671e-05	 2.259614e-05
8.979579e-11	 -9.652868e-05	 1.742953e-05
1.139794e-10	 -1.268348e-04	 9.359625e-06
1.295330e-10	 -1.365121e-04	 -3.291732e-12
1.164950e-10	 -1.268348e-04	 -9.359629e-06
9.340986e-11	 -9.652864e-05	 -1.742953e-05
4.899705e-11	 -5.253668e-05	 -2.259614e-05
0	 0	 -2.464907e-05
2.317655e-06	 9.220487e-05	 1.142050e-05
2.317665e-06	 9.220491e-05	 -1.142050e-05
2.316001e-06	 -9.221187e-05	 1.142104e-05
2.316006e-06	 -9.221182e-05	 -1.142104e-05
0	 0	 1.615103e-05
0	 0	 -1.615103e-05
0	 0	 1.615179e-05
3.275323e-06	 -1.304072e-04	 -1.017678e-12
0	 0	 -1.615179e-05
3.277666e-06	 1.303974e-04	 6.830343e-13
1.332570e-06	 -1.299683e-04	 -2.368840e-12
1.335090e-06	 1.299585e-04	 1.798147e-12
9.422719e-07	 -9.190146e-05	 -1.388702e-05
0	 0	 1.963817e-05
0	 0	 -1.963817e-05
9.440481e-07	 9.189453e-05	 1.388628e-05
9.440549e-07	 9.189457e-05	 -1.388628e-05
0	 0	 1.963921e-05
0	 0	 -1.963920e-05
9.422665e-07	 -9.190151e-05	 1.388702e-05
-4.018839e-07	 9.148643e-05	 -1.635020e-05
-4.037865e-07	 -9.149329e-05	 -1.635112e-05
0	 0	 2.312267e-05
-5.683527e-07	 1.293813e-04	 2.912743e-12
0	 0	 -2.312268e-05
0	 0	 2.312399e-05
-5.710445e-07	 -1.293911e-04	 -3.719538e-12
0	 0	 -2.312398e-05
-4.018881e-07	 9.148639e-05	 1.635020e-05
-4.037924e-07	 -9.149334e-05	 1.635112e-05
8.177633e-06	 7.814924e-05	 8.825850e-06
8.177651e-06	 7.814925e-05	 -8.825850e-06
4.306688e-06	 4.245835e-05	 1.174594e-05
1.156493e-05	 1.105197e-04	 6.188003e-14
4.306211e-06	 -4.246125e-05	 1.174660e-05
8.176768e-06	 -7.815455e-05	 8.826340e-06
8.176767e-06	 -7.815451e-05	 -8.826341e-06
4.306210e-06	 -4.246122e-05	 -1.174660e-05
1.039727e-05	 1.025035e-04	 4.865328e-06
1.039729e-05	 1.025035e-04	 -4.865328e-06
4.306700e-06	 4.245836e-05	 -1.174594e-05
0	 0	 1.248164e-05
0	 0	 -1.248164e-05
1.156370e-05	 -1.105272e-04	 -6.627607e-13
0	 0	 1.248233e-05
1.039611e-05	 -1.025105e-04	 -4.865601e-06
0	 0	 -1.248233e-05
1.039611e-05	 -1.025105e-04	 4.865599e-06
6.972249e-06	 7.761361e-05	 9.782507e-06
6.971220e-06	 -7.761885e-05	 9.783069e-06
0	 0	 1.383535e-05
0	 0	 -1.383535e-05
9.860261e-06	 1.097622e-04	 1.861320e-13
0	 0	 1.383455e-05
0	 0	 -1.383455e-05
6.972266e-06	 7.761362e-05	 -9.782507e-06
6.971220e-06	 -7.761882e-05	 -9.783069e-06
9.858794e-06	 -1.097696e-04	 -1.139894e-12
2.995460e-06	 -4.188082e-05	 -1.407400e-05
5.780425e-06	 7.706052e-05	 1.073672e-05
7.233276e-06	 1.011025e-04	 -5.829299e-06
5.779233e-06	 -7.706569e-05	 1.073735e-05
7.231679e-06	 -1.011093e-04	 -5.829644e-06
7.231678e-06	 -1.011093e-04	 5.829642e-06
0	 0	 1.518401e-05
2.996114e-06	 4.187802e-05	 1.407317e-05
8.174765e-06	 1.089800e-04	 3.096659e-13
0	 0	 -1.518401e-05
8.173071e-06	 -1.089873e-04	 -1.613122e-12
0	 0	 1.518491e-05
2.995459e-06	 -4.188085e-05	 1.407400e-05
0	 0	 -1.518491e-05
7.233266e-06	 1.011025e-04	 5.829299e-06
2.996124e-06	 4.187803e-05	 -1.407317e-05
5.780439e-06	 7.706053e-05	 -1.073672e-05
5.779234e-06	 -7.706566e-05	 -1.073735e-05
0	 0	 1.653163e-05
4.584348e-06	 7.649312e-05	 1.168963e-05
4.584361e-06	 7.649313e-05	 -1.168963e-05
0	 0	 -1.653163e-05
0	 0	 1.653263e-05
4.582995e-06	 -7.649819e-05	 -1.169033e-05
0	 0	 -1.653262e-05
4.582993e-06	 -7.649822e-05	 1.169033e-05
6.483256e-06	 1.081776e-04	 4.325939e-13
6.481333e-06	 -1.081848e-04	 -2.085511e-12
1.693692e-06	 4.126034e-05	 1.639418e-05
1.692858e-06	 -4.126308e-05	 1.639519e-05
3.393073e-06	 -7.591269e-05	 -1.264415e-05
1.692861e-06	 -4.126306e-05	 -1.639518e-05
0	 0	 1.788043e-05
3.394588e-06	 7.590769e-05	 1.264337e-05
4.800680e-06	 1.073497e-04	 5.557627e-13
4.088947e-06	 9.961128e-05	 -6.790692e-06
3.394599e-06	 7.590770e-05	 -1.264338e-05
1.693699e-06	 4.126035e-05	 -1.639418e-05
0	 0	 -1.788043e-05
0	 0	 1.788153e-05
3.393069e-06	 -7.591272e-05	 1.264415e-05
4.798527e-06	 -1.073568e-04	 -2.560597e-12
4.086926e-06	 -9.961785e-05	 -6.791110e-06
0	 0	 -1.788153e-05
4.088939e-06	 9.961127e-05	 6.790692e-06
4.086923e-06	 -9.961787e-05	 6.791107e-06
0	 0	 6.948700e-06
2.731751e-05	 8.237555e-05	 -5.890493e-13
1.931641e-05	 5.824831e-05	 -4.913473e-06
0	 0	 -6.948699e-06
0	 0	 6.949191e-06