# vtk DataFile Version 3.0
Unstructured Grid Example
ASCII
DATASET UNSTRUCTURED_GRID
POINTS 832 float
-1	 0	 0
-1	 0	 3.750000e-01
-1	 0	 7.500000e-01
-1	 0	 1.125000e+00
-1	 0	 1.500000e+00
-1	 0	 1.875000e+00
-1	 0	 2.250000e+00
-1	 0	 2.625000e+00
-1	 0	 3
-9.875000e-01	 0	 0
-9.875000e-01	 0	 1.500000e+00
-9.875000e-01	 0	 3
-9.875000e-01	 0	 2.250000e+00
-9.875000e-01	 0	 7.500000e-01
-9.833054e-01	 -1.819631e-01	 7.500000e-01
-9.833054e-01	 -1.819631e-01	 0
-9.833054e-01	 -1.819631e-01	 1.500000e+00
-9.833054e-01	 -1.819631e-01	 3.000000e+00
-9.833054e-01	 1.819631e-01	 2.250000e+00
-9.833054e-01	 1.819631e-01	 0
-9.833054e-01	 1.819631e-01	 1.500000e+00
-9.833054e-01	 1.819631e-01	 3.000000e+00
-9.833054e-01	 1.819631e-01	 7.500000e-01
-9.833054e-01	 -1.819631e-01	 2.250000e+00
-9.750000e-01	 0	 7.500000e-01
-9.750000e-01	 0	 1.125000e+00
-9.750000e-01	 0	 0
-9.750000e-01	 0	 3.750000e-01
-9.750000e-01	 0	 1.875000e+00
-9.750000e-01	 0	 2.625000e+00
-9.750000e-01	 0	 3
-9.750000e-01	 0	 1.500000e+00
-9.750000e-01	 0	 2.250000e+00
-9.625000e-01	 0	 1.500000e+00
-9.625000e-01	 0	 2.250000e+00
-9.625000e-01	 0	 0
-9.625000e-01	 0	 7.500000e-01
-9.625000e-01	 0	 3
-9.587227e-01	 -1.774140e-01	 0
-9.587227e-01	 -1.774140e-01	 3.000000e+00
-9.587227e-01	 -1.774140e-01	 1.500000e+00
-9.587227e-01	 1.774140e-01	 0
-9.587227e-01	 1.774140e-01	 3.000000e+00
-9.587227e-01	 1.774140e-01	 1.500000e+00
-9.587227e-01	 1.774140e-01	 7.500000e-01
-9.587227e-01	 -1.774140e-01	 7.500000e-01
-9.587227e-01	 -1.774140e-01	 2.250000e+00
-9.587227e-01	 1.774140e-01	 2.250000e+00
-9.500000e-01	 0	 0
-9.500000e-01	 0	 3.750000e-01
-9.500000e-01	 0	 1.125000e+00
-9.500000e-01	 0	 1.500000e+00
-9.500000e-01	 0	 1.875000e+00
-9.500000e-01	 0	 2.250000e+00
-9.500000e-01	 0	 2.625000e+00
-9.500000e-01	 0	 3
-9.500000e-01	 0	 7.500000e-01
-9.341401e-01	 -1.728649e-01	 1.500000e+00
-9.341401e-01	 -1.728649e-01	 0
-9.341401e-01	 -1.728649e-01	 3.000000e+00
-9.341401e-01	 1.728649e-01	 2.250000e+00
-9.341401e-01	 1.728649e-01	 0
-9.341401e-01	 1.728649e-01	 1.500000e+00
-9.341401e-01	 1.728649e-01	 3.000000e+00
-9.341401e-01	 -1.728649e-01	 7.500000e-01
-9.341401e-01	 -1.728649e-01	 2.250000e+00
-9.341401e-01	 1.728649e-01	 7.500000e-01
-9.297883e-01	 -3.680947e-01	 1.125000e+00
-9.297883e-01	 -3.680947e-01	 0
-9.297883e-01	 -3.680947e-01	 7.500000e-01
-9.297883e-01	 -3.680947e-01	 1.500000e+00
-9.297883e-01	 -3.680947e-01	 1.875000e+00
-9.297883e-01	 -3.680947e-01	 2.250000e+00
-9.297883e-01	 -3.680947e-01	 2.625000e+00
-9.297883e-01	 -3.680947e-01	 3.000000e+00
-9.297883e-01	 -3.680947e-01	 3.750000e-01
-9.297883e-01	 3.680947e-01	 3.750000e-01
-9.297883e-01	 3.680947e-01	 2.250000e+00
-9.297883e-01	 3.680947e-01	 2.625000e+00
-9.297883e-01	 3.680947e-01	 0
-9.297883e-01	 3.680947e-01	 7.500000e-01
-9.297883e-01	 3.680947e-01	 1.500000e+00
-9.297883e-01	 3.680947e-01	 1.875000e+00
-9.297883e-01	 3.680947e-01	 3.000000e+00
-9.297883e-01	 3.680947e-01	 1.125000e+00
-9.181659e-01	 3.634935e-01	 7.500000e-01
-9.181659e-01	 -3.634935e-01	 0
-9.181659e-01	 -3.634935e-01	 7.500000e-01
-9.181659e-01	 -3.634935e-01	 2.250000e+00
-9.181659e-01	 -3.634935e-01	 3
-9.181659e-01	 3.634935e-01	 0
-9.181659e-01	 3.634935e-01	 2.250000e+00
-9.181659e-01	 3.634935e-01	 3
-9.181659e-01	 -3.634935e-01	 1.500000e+00
-9.181659e-01	 3.634935e-01	 1.500000e+00
-9.065436e-01	 -3.588923e-01	 1.125000e+00
-9.065436e-01	 -3.588923e-01	 2.625000e+00
-9.065436e-01	 -3.588923e-01	 0
-9.065436e-01	 -3.588923e-01	 3.750000e-01
-9.065436e-01	 -3.588923e-01	 1.500000e+00
-9.065436e-01	 -3.588923e-01	 3
-9.065436e-01	 3.588923e-01	 2.625000e+00
-9.065436e-01	 3.588923e-01	 1.125000e+00
-9.065436e-01	 3.588923e-01	 0
-9.065436e-01	 3.588923e-01	 3.750000e-01
-9.065436e-01	 3.588923e-01	 3
-9.065436e-01	 -3.588923e-01	 7.500000e-01
-9.065436e-01	 -3.588923e-01	 1.875000e+00
-9.065436e-01	 3.588923e-01	 1.875000e+00
-9.065436e-01	 3.588923e-01	 1.500000e+00
-9.065436e-01	 -3.588923e-01	 2.250000e+00
-9.065436e-01	 3.588923e-01	 7.500000e-01
-9.065436e-01	 3.588923e-01	 2.250000e+00
-8.949212e-01	 3.542912e-01	 1.500000e+00
-8.949212e-01	 -3.542912e-01	 1.500000e+00
-8.949212e-01	 -3.542912e-01	 0
-8.949212e-01	 -3.542912e-01	 3.000000e+00
-8.949212e-01	 3.542912e-01	 0
-8.949212e-01	 3.542912e-01	 3.000000e+00
-8.949212e-01	 -3.542912e-01	 2.250000e+00
-8.949212e-01	 -3.542912e-01	 7.500000e-01
-8.949212e-01	 3.542912e-01	 2.250000e+00
-8.949212e-01	 3.542912e-01	 7.500000e-01
-8.832989e-01	 -3.496900e-01	 1.125000e+00
-8.832989e-01	 -3.496900e-01	 1.875000e+00
-8.832989e-01	 -3.496900e-01	 2.625000e+00
-8.832989e-01	 -3.496900e-01	 2.250000e+00
-8.832989e-01	 3.496900e-01	 1.125000e+00
-8.832989e-01	 -3.496900e-01	 0
-8.832989e-01	 -3.496900e-01	 3.000000e+00
-8.832989e-01	 -3.496900e-01	 3.750000e-01
-8.832989e-01	 -3.496900e-01	 7.500000e-01
-8.832989e-01	 3.496900e-01	 3.750000e-01
-8.832989e-01	 3.496900e-01	 7.500000e-01
-8.832989e-01	 3.496900e-01	 2.250000e+00
-8.832989e-01	 3.496900e-01	 2.625000e+00
-8.832989e-01	 3.496900e-01	 0
-8.832989e-01	 3.496900e-01	 1.875000e+00
-8.832989e-01	 3.496900e-01	 3.000000e+00
-8.832989e-01	 -3.496900e-01	 1.500000e+00
-8.832989e-01	 3.496900e-01	 1.500000e+00
-8.369955e-01	 -5.472098e-01	 0
-8.369955e-01	 -5.472098e-01	 7.500000e-01
-8.369955e-01	 -5.472098e-01	 1.500000e+00
-8.369955e-01	 -5.472098e-01	 2.250000e+00
-8.369955e-01	 -5.472098e-01	 3
-8.369955e-01	 5.472098e-01	 0
-8.369955e-01	 5.472098e-01	 7.500000e-01
-8.369955e-01	 5.472098e-01	 1.500000e+00
-8.369955e-01	 5.472098e-01	 2.250000e+00
-8.369955e-01	 5.472098e-01	 3
-8.160706e-01	 -5.335295e-01	 7.500000e-01
-8.160706e-01	 5.335295e-01	 7.500000e-01
-8.160706e-01	 -5.335295e-01	 1.500000e+00
-8.160706e-01	 -5.335295e-01	 2.250000e+00
-8.160706e-01	 5.335295e-01	 1.500000e+00
-8.160706e-01	 5.335295e-01	 2.250000e+00
-8.160706e-01	 -5.335295e-01	 0
-8.160706e-01	 -5.335295e-01	 3.000000e+00
-8.160706e-01	 5.335295e-01	 0
-8.160706e-01	 5.335295e-01	 3.000000e+00
-7.951457e-01	 -5.198493e-01	 7.500000e-01
-7.951457e-01	 5.198493e-01	 7.500000e-01
-7.951457e-01	 -5.198493e-01	 0
-7.951457e-01	 -5.198493e-01	 1.500000e+00
-7.951457e-01	 -5.198493e-01	 2.250000e+00
-7.951457e-01	 -5.198493e-01	 3
-7.951457e-01	 5.198493e-01	 0
-7.951457e-01	 5.198493e-01	 1.500000e+00
-7.951457e-01	 5.198493e-01	 2.250000e+00
-7.951457e-01	 5.198493e-01	 3
-7.071068e-01	 -7.071068e-01	 0
-7.071068e-01	 -7.071068e-01	 3.750000e-01
-7.071068e-01	 -7.071068e-01	 7.500000e-01
-7.071068e-01	 -7.071068e-01	 1.125000e+00
-7.071068e-01	 -7.071068e-01	 1.500000e+00
-7.071068e-01	 -7.071068e-01	 1.875000e+00
-7.071068e-01	 -7.071068e-01	 2.250000e+00
-7.071068e-01	 -7.071068e-01	 2.625000e+00
-7.071068e-01	 -7.071068e-01	 3.000000e+00
-7.071068e-01	 7.071068e-01	 0
-7.071068e-01	 7.071068e-01	 3.750000e-01
-7.071068e-01	 7.071068e-01	 7.500000e-01
-7.071068e-01	 7.071068e-01	 1.125000e+00
-7.071068e-01	 7.071068e-01	 1.500000e+00
-7.071068e-01	 7.071068e-01	 1.875000e+00
-7.071068e-01	 7.071068e-01	 2.250000e+00
-7.071068e-01	 7.071068e-01	 2.625000e+00
-7.071068e-01	 7.071068e-01	 3.000000e+00
-6.982679e-01	 -6.982679e-01	 7.500000e-01
-6.982679e-01	 6.982679e-01	 7.500000e-01
-6.982679e-01	 -6.982679e-01	 0
-6.982679e-01	 -6.982679e-01	 2.250000e+00
-6.982679e-01	 -6.982679e-01	 3.000000e+00
-6.982679e-01	 6.982679e-01	 0
-6.982679e-01	 6.982679e-01	 2.250000e+00
-6.982679e-01	 6.982679e-01	 3.000000e+00
-6.982679e-01	 -6.982679e-01	 1.500000e+00
-6.982679e-01	 6.982679e-01	 1.500000e+00
-6.894291e-01	 -6.894291e-01	 3.750000e-01
-6.894291e-01	 -6.894291e-01	 2.625000e+00
-6.894291e-01	 -6.894291e-01	 0
-6.894291e-01	 -6.894291e-01	 1.500000e+00
-6.894291e-01	 -6.894291e-01	 2.250000e+00
-6.894291e-01	 -6.894291e-01	 3.000000e+00
-6.894291e-01	 6.894291e-01	 3.750000e-01
-6.894291e-01	 6.894291e-01	 2.625000e+00
-6.894291e-01	 -6.894291e-01	 1.875000e+00
-6.894291e-01	 6.894291e-01	 1.875000e+00
-6.894291e-01	 -6.894291e-01	 7.500000e-01
-6.894291e-01	 -6.894291e-01	 1.125000e+00
-6.894291e-01	 6.894291e-01	 0
-6.894291e-01	 6.894291e-01	 1.500000e+00
-6.894291e-01	 6.894291e-01	 2.250000e+00
-6.894291e-01	 6.894291e-01	 3.000000e+00
-6.894291e-01	 6.894291e-01	 7.500000e-01
-6.894291e-01	 6.894291e-01	 1.125000e+00
-6.805903e-01	 6.805903e-01	 7.500000e-01
-6.805903e-01	 -6.805903e-01	 7.500000e-01
-6.805903e-01	 -6.805903e-01	 0
-6.805903e-01	 -6.805903e-01	 1.500000e+00
-6.805903e-01	 -6.805903e-01	 3.000000e+00
-6.805903e-01	 6.805903e-01	 0
-6.805903e-01	 6.805903e-01	 1.500000e+00
-6.805903e-01	 6.805903e-01	 3.000000e+00
-6.805903e-01	 6.805903e-01	 2.250000e+00
-6.805903e-01	 -6.805903e-01	 2.250000e+00
-6.717514e-01	 -6.717514e-01	 2.625000e+00
-6.717514e-01	 6.717514e-01	 2.625000e+00
-6.717514e-01	 -6.717514e-01	 0
-6.717514e-01	 -6.717514e-01	 3.750000e-01
-6.717514e-01	 -6.717514e-01	 7.500000e-01
-6.717514e-01	 -6.717514e-01	 1.125000e+00
-6.717514e-01	 -6.717514e-01	 1.875000e+00
-6.717514e-01	 -6.717514e-01	 3.000000e+00
-6.717514e-01	 -6.717514e-01	 2.250000e+00
-6.717514e-01	 6.717514e-01	 1.500000e+00
-6.717514e-01	 6.717514e-01	 0
-6.717514e-01	 6.717514e-01	 3.750000e-01
-6.717514e-01	 6.717514e-01	 7.500000e-01
-6.717514e-01	 6.717514e-01	 1.125000e+00
-6.717514e-01	 6.717514e-01	 1.875000e+00
-6.717514e-01	 6.717514e-01	 3.000000e+00
-6.717514e-01	 -6.717514e-01	 1.500000e+00
-6.717514e-01	 6.717514e-01	 2.250000e+00
-5.472098e-01	 -8.369955e-01	 0
-5.472098e-01	 -8.369955e-01	 7.500000e-01
-5.472098e-01	 -8.369955e-01	 1.500000e+00
-5.472098e-01	 -8.369955e-01	 2.250000e+00
-5.472098e-01	 -8.369955e-01	 3
-5.472098e-01	 8.369955e-01	 0
-5.472098e-01	 8.369955e-01	 7.500000e-01
-5.472098e-01	 8.369955e-01	 1.500000e+00
-5.472098e-01	 8.369955e-01	 2.250000e+00
-5.472098e-01	 8.369955e-01	 3
-5.335295e-01	 -8.160706e-01	 1.500000e+00
-5.335295e-01	 -8.160706e-01	 2.250000e+00
-5.335295e-01	 8.160706e-01	 0
-5.335295e-01	 8.160706e-01	 3.000000e+00
[...]
POINT_DATA 832
VECTORS displacement float
0	 0	 1.766861e-07
8.208769e-07	 3.834889e-07	 1.157866e-07
1.091346e-06	 5.545436e-07	 1.060631e-13
8.208773e-07	 3.834889e-07	 -1.157864e-07
6.440608e-13	 1.218464e-13	 -1.766860e-07
-8.208761e-07	 -3.834887e-07	 -1.157865e-07
-1.091345e-06	 -5.545435e-07	 -1.066920e-13
-8.208764e-07	 -3.834888e-07	 1.157863e-07
0	 0	 1.766858e-07
0	 0	 1.425906e-07
6.456038e-13	 2.122145e-13	 -1.425904e-07
0	 0	 1.425903e-07
-1.095688e-06	 -6.347424e-07	 -1.006033e-13
1.095689e-06	 6.347427e-07	 9.997491e-14
2.002903e-06	 6.867225e-07	 1.784691e-13
0	 0	 3.371696e-07
1.687358e-12	 2.706980e-13	 -3.371694e-07
0	 0	 3.371691e-07
5.968100e-08	 -6.260814e-07	 -2.512769e-14
0	 0	 -2.593342e-08
-5.790293e-13	 2.431875e-13	 2.593346e-08
0	 0	 -2.593349e-08
-5.968182e-08	 6.260817e-07	 2.451826e-14
-2.002901e-06	 -6.867221e-07	 -1.791130e-13
1.098723e-06	 7.145180e-07	 9.392020e-14
8.242620e-07	 5.006998e-07	 -7.730804e-08
0	 0	 1.086805e-07
8.242617e-07	 5.006996e-07	 7.730822e-08
-8.242608e-07	 -5.006992e-07	 -7.730814e-08
-8.242612e-07	 -5.006994e-07	 7.730797e-08
0	 0	 1.086802e-07
6.465116e-13	 3.022224e-13	 -1.086804e-07
-1.098722e-06	 -7.145175e-07	 -9.454807e-14
6.473968e-13	 3.912244e-13	 -7.470509e-08
-1.101544e-06	 -7.933847e-07	 -8.848294e-14
0	 0	 7.470521e-08
1.101545e-06	 7.933852e-07	 8.785555e-14
0	 0	 7.470496e-08
0	 0	 2.109496e-07
0	 0	 2.109492e-07
1.671111e-12	 3.746913e-13	 -2.109494e-07
0	 0	 -1.496587e-08
0	 0	 -1.496597e-08
-5.507173e-13	 3.906556e-13	 1.496592e-08
-3.103893e-08	 7.822489e-07	 3.624645e-14
1.994063e-06	 7.626880e-07	 1.458613e-13
-1.994061e-06	 -7.626875e-07	 -1.465047e-13
3.103815e-08	 -7.822484e-07	 -3.685178e-14
0	 0	 4.046277e-08
8.246890e-07	 6.174023e-07	 3.867841e-08
8.246893e-07	 6.174026e-07	 -3.867826e-08
6.474693e-13	 4.809027e-13	 -4.046265e-08
-8.246881e-07	 -6.174017e-07	 -3.867835e-08
-1.102888e-06	 -8.731377e-07	 -8.237120e-14
-8.246885e-07	 -6.174019e-07	 3.867820e-08
0	 0	 4.046254e-08
1.102889e-06	 8.731384e-07	 8.174437e-14
1.649528e-12	 4.784280e-13	 -8.458621e-08
0	 0	 8.458637e-08
0	 0	 8.458605e-08
1.129719e-09	 -9.400221e-07	 -4.855334e-14
0	 0	 -3.924935e-09
-5.195298e-13	 5.388283e-13	 3.925003e-09
0	 0	 -3.925072e-09
1.977810e-06	 8.380946e-07	 1.132465e-13
-1.977807e-06	 -8.380940e-07	 -1.138896e-13
-1.130455e-09	 9.400229e-07	 4.795209e-14
1.616179e-06	 6.222898e-07	 -2.445113e-07
0	 0	 3.761661e-07
2.141915e-06	 8.181740e-07	 2.081870e-13
2.164513e-12	 4.740369e-13	 -3.761658e-07
-1.616175e-06	 -6.222889e-07	 -2.445115e-07
-2.141912e-06	 -8.181734e-07	 -2.088346e-13
-1.616176e-06	 -6.222892e-07	 2.445111e-07
0	 0	 3.761655e-07
1.616178e-06	 6.222896e-07	 2.445117e-07
-8.631994e-07	 7.167504e-07	 -1.497733e-07
1.128077e-06	 -9.863485e-07	 3.177340e-14
8.631982e-07	 -7.167499e-07	 -1.497732e-07
0	 0	 -2.295498e-07
-1.128079e-06	 9.863492e-07	 -3.237064e-14
-1.490120e-12	 5.550618e-13	 2.295498e-07
8.631974e-07	 -7.167496e-07	 1.497733e-07
0	 0	 -2.295497e-07
-8.632002e-07	 7.167507e-07	 1.497732e-07
-1.108008e-06	 1.052926e-06	 -1.706149e-14
0	 0	 3.037922e-07
2.152219e-06	 8.166026e-07	 1.869063e-13
-2.152216e-06	 -8.166019e-07	 -1.875540e-13
0	 0	 3.037916e-07
0	 0	 -1.850772e-07
1.108006e-06	 -1.052925e-06	 1.646792e-14
0	 0	 -1.850771e-07
2.162906e-12	 4.902693e-13	 -3.037919e-07
-1.476556e-12	 6.017466e-13	 1.850771e-07
1.626009e-06	 6.163511e-07	 -1.639132e-07
-1.626006e-06	 -6.163505e-07	 1.639131e-07
0	 0	 2.317656e-07
1.626008e-06	 6.163508e-07	 1.639135e-07
2.159992e-12	 5.062087e-13	 -2.317653e-07
0	 0	 2.317651e-07
8.309220e-07	 -8.104684e-07	 -1.001479e-07
-8.309239e-07	 8.104692e-07	 1.001479e-07
0	 0	 -1.408422e-07
-8.309231e-07	 8.104689e-07	 -1.001479e-07
0	 0	 -1.408422e-07
2.160135e-06	 8.141779e-07	 1.656894e-13
-1.626005e-06	 -6.163502e-07	 -1.639134e-07
8.309212e-07	 -8.104680e-07	 1.001479e-07
-1.461305e-12	 6.470437e-13	 1.408422e-07
-2.160132e-06	 -8.141772e-07	 -1.663371e-13
-1.086457e-06	 1.118672e-06	 -1.873673e-15
1.086455e-06	 -1.118671e-06	 1.283677e-15
-1.445494e-12	 6.919596e-13	 9.657985e-08
2.156705e-12	 5.217075e-13	 -1.596410e-07
0	 0	 1.596412e-07
0	 0	 1.596408e-07
0	 0	 -9.657983e-08
0	 0	 -9.657987e-08
-2.167892e-06	 -8.118401e-07	 -1.450938e-13
2.167895e-06	 8.118408e-07	 1.444460e-13
1.065139e-06	 -1.183652e-06	 -1.392317e-14
-1.065141e-06	 1.183653e-06	 1.333677e-14
1.630562e-06	 6.084540e-07	 -8.300363e-08
-1.630558e-06	 -6.084530e-07	 -8.300377e-08
-1.630559e-06	 -6.084533e-07	 8.300353e-08
-2.173030e-06	 -8.083117e-07	 -1.237630e-13
-7.953733e-07	 9.024794e-07	 5.038156e-08
0	 0	 8.697270e-08
0	 0	 8.697235e-08
1.630561e-06	 6.084538e-07	 8.300386e-08
2.173033e-06	 8.083124e-07	 1.231151e-13
-7.953725e-07	 9.024790e-07	 -5.038151e-08
-1.041799e-06	 1.248551e-06	 2.866108e-14
1.041797e-06	 -1.248550e-06	 -2.924380e-14
7.953714e-07	 -9.024784e-07	 -5.038158e-08
0	 0	 -5.196879e-08
7.953706e-07	 -9.024780e-07	 5.038153e-08
0	 0	 -5.196887e-08
2.152042e-12	 5.365664e-13	 -8.697253e-08
-1.427257e-12	 7.363604e-13	 5.196883e-08
0	 0	 3.107703e-07
1.789068e-06	 7.361060e-07	 1.860496e-13
2.135839e-12	 5.113813e-13	 -3.107701e-07
-1.789065e-06	 -7.361053e-07	 -1.867012e-13
0	 0	 3.107698e-07
0	 0	 -3.727680e-07
-1.816282e-06	 1.412149e-06	 -3.301865e-14
-1.548177e-12	 7.289484e-13	 3.727680e-07
1.816280e-06	 -1.412148e-06	 3.243285e-14
0	 0	 -3.727679e-07
1.844357e-06	 6.597941e-07	 1.462342e-13
-1.796022e-06	 1.452793e-06	 -1.462823e-15
2.156419e-12	 4.835980e-13	 -1.965479e-07
-1.844354e-06	 -6.597935e-07	 -1.468876e-13
-1.585925e-12	 6.718938e-13	 2.351920e-07
1.796019e-06	 -1.452792e-06	 8.888030e-16
0	 0	 1.965481e-07
0	 0	 1.965477e-07
0	 0	 -2.351920e-07
0	 0	 -2.351920e-07
1.895094e-06	 5.791921e-07	 1.064247e-13
-1.769138e-06	 1.489658e-06	 2.999716e-14
0	 0	 8.222991e-08
2.173808e-12	 4.533328e-13	 -8.222976e-08
-1.895091e-06	 -5.791914e-07	 -1.070801e-13
0	 0	 8.222961e-08
0	 0	 -9.746616e-08
-1.615386e-12	 6.087188e-13	 9.746620e-08
1.769136e-06	 -1.489658e-06	 -3.055935e-14
0	 0	 -9.746625e-08
0	 0	 1.115930e-07
6.555028e-07	 7.054427e-08	 7.279170e-08
9.041085e-07	 5.751086e-08	 9.933585e-14
6.555037e-07	 7.054438e-08	 -7.279152e-08
1.693653e-12	 1.974278e-13	 -1.115929e-07
-6.555006e-07	 -7.054400e-08	 -7.279163e-08
-9.041062e-07	 -5.751058e-08	 -9.998903e-14
-6.555015e-07	 -7.054411e-08	 7.279144e-08
0	 0	 1.115928e-07
0	 0	 -3.578635e-07
-1.255510e-06	 1.073031e-06	 -2.334399e-07
-1.674112e-06	 1.410021e-06	 5.723741e-14
-1.255511e-06	 1.073031e-06	 2.334400e-07
-5.050827e-13	 3.268130e-14	 3.578636e-07
1.255510e-06	 -1.073031e-06	 2.334399e-07
1.674112e-06	 -1.410020e-06	 -5.781570e-14
1.255510e-06	 -1.073031e-06	 -2.334401e-07
0	 0	 -3.578637e-07
9.638550e-07	 1.615199e-09	 8.635064e-14
-1.698340e-06	 1.398144e-06	 6.071216e-14
0	 0	 9.024151e-08
-9.638526e-07	 -1.614963e-09	 -8.700548e-14
0	 0	 9.024126e-08
0	 0	 -2.893907e-07
1.698339e-06	 -1.398145e-06	 -6.128221e-14
0	 0	 -2.893909e-07
1.728318e-12	 1.663307e-13	 -9.024139e-08
-5.873921e-13	 -4.676450e-14	 2.893908e-07
7.402195e-07	 -1.123961e-08	 4.880008e-08
-7.402182e-07	 1.123972e-08	 4.879989e-08
0	 0	 6.898806e-08
1.762517e-12	 1.347353e-13	 -6.898796e-08
-1.022879e-06	 5.459431e-08	 -7.405541e-14
0	 0	 6.898785e-08
-1.286200e-06	 1.051745e-06	 -1.564897e-07
1.286200e-06	 -1.051746e-06	 -1.564899e-07
-7.402172e-07	 1.123980e-08	 -4.880003e-08
1.286199e-06	 -1.051746e-06	 1.564898e-07
1.022881e-06	 -5.459412e-08	 7.339883e-14
7.402205e-07	 -1.123953e-08	 -4.879995e-08
0	 0	 -2.212328e-07
-6.682073e-13	 -1.267649e-13	 2.212329e-07
1.720845e-06	 -1.384674e-06	 -6.465705e-14
0	 0	 -2.212329e-07
-1.720846e-06	 1.384673e-06	 6.409517e-14
-1.286201e-06	 1.051745e-06	 1.564899e-07
-1.743012e-06	 1.371293e-06	 6.748448e-14
1.081181e-06	 -1.101544e-07	 6.043217e-14
0	 0	 4.771344e-08
1.796094e-12	 1.031579e-13	 -4.771336e-08
0	 0	 4.771327e-08
0	 0	 -1.530069e-07
-7.480704e-13	 -2.061026e-13	 1.530070e-07
0	 0	 -1.530071e-07
1.743011e-06	 -1.371293e-06	 -6.803822e-14
-1.081178e-06	 1.101545e-07	 -6.109047e-14
-8.234521e-07	 9.384463e-08	 2.471952e-08
1.313090e-06	 -1.026868e-06	 -7.925493e-08
0	 0	 2.628031e-08
8.234535e-07	 -9.384457e-08	 2.471965e-08
1.139455e-06	 -1.668600e-07	 4.742292e-14
8.234545e-07	 -9.384452e-08	 -2.471956e-08
-8.234511e-07	 9.384467e-08	 -2.471961e-08
0	 0	 2.628018e-08
-1.139453e-06	 1.668601e-07	 -4.808293e-14
-8.271962e-13	 -2.872987e-13	 8.427266e-08
0	 0	 -8.427256e-08
-1.313091e-06	 1.026868e-06	 -7.925474e-08
-1.763475e-06	 1.355858e-06	 7.095414e-14
-1.313092e-06	 1.026868e-06	 7.925487e-08
1.313090e-06	 -1.026869e-06	 7.925480e-08
0	 0	 -8.427276e-08
1.829315e-12	 7.087815e-14	 -2.628025e-08
1.763474e-06	 -1.355859e-06	 -7.149962e-14
0	 0	 -1.202169e-07
8.078137e-08	 -9.199856e-07	 -2.440515e-14
1.133781e-12	 -4.583216e-13	 1.202169e-07
-8.077976e-08	 9.199850e-07	 2.375338e-14
0	 0	 -1.202168e-07
0	 0	 -2.382680e-07
-1.207449e-06	 9.707992e-07	 1.758039e-13
6.843613e-13	 -1.416571e-12	 2.382683e-07
1.207450e-06	 -9.708012e-07	 -1.763562e-13
0	 0	 -2.382685e-07
1.231021e-12	 -5.227895e-13	 7.642158e-08
-2.015889e-07	 1.001168e-06	 2.820975e-14
0	 0	 -1.500073e-07
0	 0	 -1.500077e-07
5.035240e-13	 -1.537791e-12	 1.500075e-07
1.309607e-06	 -9.079526e-07	 -1.461709e-13
2.015906e-07	 -1.001169e-06	 -2.886625e-14
0	 0	 -7.642162e-08
0	 0	 -7.642154e-08
-1.309607e-06	 9.079505e-07	 1.456310e-13
-1.410141e-06	 8.402023e-07	 1.154531e-13
3.250064e-07	 -1.081392e-06	 -3.331314e-14
0	 0	 -3.261323e-08
1.328223e-12	 -5.887794e-13	 3.261318e-08
-3.250045e-07	 1.081391e-06	 3.265183e-14
0	 0	 -3.261314e-08
0	 0	 -6.163064e-08
3.199079e-13	 -1.658192e-12	 6.163080e-08
1.410141e-06	 -8.402046e-07	 -1.159804e-13
0	 0	 -6.163097e-08
-2.611098e-07	 -1.367948e-06	 1.937064e-07
-4.410531e-07	 -6.792892e-08	 1.304323e-08
0	 0	 -2.986040e-07
-3.129022e-07	 -1.823935e-06	 -1.614617e-13
6.584481e-13	 -1.364508e-12	 2.986038e-07
2.611110e-07	 1.367946e-06	 1.937066e-07
0	 0	 -2.986036e-07
0	 0	 -1.901997e-08
-6.333392e-07	 -1.094053e-07	 2.520856e-13
1.352034e-12	 -2.831520e-12	 1.902033e-08
4.410556e-07	 6.792363e-08	 1.304296e-08
6.333412e-07	 1.094013e-07	 -2.526065e-13
4.410549e-07	 6.792518e-08	 -1.304342e-08
0	 0	 -1.902068e-08
-2.611102e-07	 -1.367948e-06	 -1.937067e-07
3.129031e-07	 1.823933e-06	 1.608092e-13
2.611107e-07	 1.367947e-06	 -1.937063e-07
-4.410538e-07	 -6.792737e-08	 -1.304277e-08
7.211665e-13	 -1.390994e-12	 2.413658e-07
1.278525e-12	 -2.868205e-12	 1.498766e-08
-2.650326e-07	 -1.850310e-06	 -1.514419e-13
0	 0	 -2.413660e-07
2.650336e-07	 1.850308e-06	 1.507864e-13
0	 0	 -2.413656e-07
0	 0	 -1.498735e-08
-7.153173e-07	 -1.409120e-07	 2.218646e-13
7.153191e-07	 1.409079e-07	 -2.223811e-13
0	 0	 -1.498798e-08
2.167000e-07	 1.874805e-06	 1.407599e-13
7.968781e-07	 1.725636e-07	 -1.922927e-13
-5.590350e-07	 -1.139402e-07	 8.438935e-09
5.590366e-07	 1.139364e-07	 -8.439083e-09
0	 0	 -1.843859e-07
-1.891866e-07	 -1.402178e-06	 -1.300330e-07
0	 0	 -1.843855e-07
7.838159e-13	 -1.417309e-12	 1.843857e-07
0	 0	 -1.100338e-08
-5.590356e-07	 -1.139386e-07	 -8.438580e-09
1.204951e-12	 -2.902096e-12	 1.100365e-08
0	 0	 -1.100392e-08
-1.891862e-07	 -1.402179e-06	 1.300328e-07
1.891876e-07	 1.402176e-06	 1.300329e-07
-2.166989e-07	 -1.874807e-06	 -1.414184e-13
-7.968764e-07	 -1.725677e-07	 1.917805e-13
5.590372e-07	 1.139348e-07	 8.438727e-09
1.891872e-07	 1.402177e-06	 -1.300327e-07
8.459537e-13	 -1.443326e-12	 1.273057e-07
1.690010e-07	 1.898950e-06	 1.307121e-13
8.774473e-07	 2.038250e-07	 -1.621472e-13
0	 0	 -7.053746e-09
0	 0	 -7.054204e-09
1.131915e-12	 -2.935036e-12	 7.053974e-09
0	 0	 -1.273058e-07
0	 0	 -1.273055e-07
-1.689998e-07	 -1.898952e-06	 -1.313738e-13
-8.774457e-07	 -2.038291e-07	 1.616392e-13
-1.160624e-07	 -1.432257e-06	 6.607795e-08
0	 0	 -6.980537e-08
1.160641e-07	 1.432255e-06	 6.607809e-08
0	 0	 -6.980503e-08
9.084411e-13	 -1.469341e-12	 6.980520e-08
0	 0	 -3.056505e-09
0	 0	 -3.056878e-09
-6.762946e-07	 -1.602830e-07	 3.878503e-09
6.762966e-07	 1.602775e-07	 3.878357e-09
6.762960e-07	 1.602791e-07	 -3.878607e-09
-1.160629e-07	 -1.432257e-06	 -6.607818e-08
-1.199116e-07	 -1.921309e-06	 -1.213080e-13
1.199129e-07	 1.921306e-06	 1.206433e-13
1.160636e-07	 1.432255e-06	 -6.607786e-08
1.056854e-12	 -2.965406e-12	 3.056691e-09
-6.762952e-07	 -1.602814e-07	 -3.878253e-09
9.587378e-07	 2.357346e-07	 -1.318320e-13
-9.587363e-07	 -2.357388e-07	 1.313284e-13
-4.019742e-07	 -2.392708e-06	 -2.800954e-13
-2.864359e-07	 -1.311465e-06	 2.453424e-13
0	 0	 -3.918454e-07
4.126135e-13	 -2.280709e-12	 3.918450e-07
0	 0	 -3.918446e-07
0	 0	 2.014689e-07
1.311828e-12	 -3.337689e-12	 -2.014686e-07
0	 0	 2.014682e-07
4.019747e-07	 2.392704e-06	 2.794514e-13
2.864378e-07	 1.311461e-06	 -2.458388e-13
-3.864289e-07	 -2.401748e-06	 -2.382186e-13
0	 0	 -2.460307e-07
0	 0	 -2.460301e-07
-4.236894e-07	 -1.340158e-06	 1.787915e-13
4.236913e-07	 1.340153e-06	 -1.792847e-13
0	 0	 1.275798e-07
0	 0	 1.275793e-07
3.864296e-07	 2.401744e-06	 2.375678e-13
1.364987e-12	 -3.332719e-12	 -1.275796e-07
5.152374e-13	 -2.303844e-12	 2.460304e-07
1.415473e-12	 -3.312441e-12	 -5.368073e-08
0	 0	 -1.000926e-07
6.190888e-13	 -2.324464e-12	 1.000923e-07
0	 0	 -1.000920e-07
0	 0	 5.368088e-08
0	 0	 5.368057e-08
3.690964e-07	 2.402654e-06	 1.956602e-13
-3.690955e-07	 -2.402657e-06	 -1.963179e-13
-5.632811e-07	 -1.365267e-06	 1.123172e-13
5.632831e-07	 1.365262e-06	 -1.128072e-13
0	 0	 -3.368079e-07
-2.011177e-07	 -1.564681e-06	 -2.207117e-07
-2.908303e-07	 -2.080179e-06	 -3.503686e-13
-2.011175e-07	 -1.564682e-06	 2.207111e-07
3.896171e-13	 -2.899968e-12	 3.368074e-07
2.011182e-07	 1.564677e-06	 2.207115e-07
2.908308e-07	 2.080175e-06	 3.497447e-13
2.011180e-07	 1.564678e-06	 -2.207108e-07
0	 0	 -3.368069e-07
0	 0	 -2.718142e-07
4.217489e-13	 -2.905024e-12	 2.718138e-07
0	 0	 -2.718133e-07
3.328679e-07	 2.088452e-06	 3.216071e-13
-3.328673e-07	 -2.088456e-06	 -3.222348e-13
-3.746825e-07	 -2.094239e-06	 -2.941513e-13
-2.625601e-07	 -1.571135e-06	 1.473716e-07
0	 0	 -2.071741e-07
-2.625604e-07	 -1.571133e-06	 -1.473721e-07
2.625610e-07	 1.571129e-06	 1.473719e-07
2.625607e-07	 1.571131e-06	 -1.473713e-07
0	 0	 -2.071732e-07
4.537836e-13	 -2.908893e-12	 2.071737e-07
3.746831e-07	 2.094235e-06	 2.935198e-13
4.855211e-13	 -2.912000e-12	 1.424091e-07
4.160222e-07	 2.099616e-06	 2.653926e-13
0	 0	 -1.424095e-07
-4.160215e-07	 -2.099620e-06	 -2.660279e-13
0	 0	 -1.424088e-07
0	 0	 -7.713592e-08
-3.237367e-07	 -1.571949e-06	 -7.374380e-08
-3.237364e-07	 -1.571951e-06	 7.374336e-08
5.174193e-13	 -2.913761e-12	 7.713558e-08
3.237374e-07	 1.571945e-06	 7.374362e-08
4.578256e-07	 2.102178e-06	 2.371752e-13
3.237371e-07	 1.571947e-06	 -7.374317e-08
0	 0	 -7.713525e-08
-4.578249e-07	 -2.102182e-06	 -2.378144e-13
-4.578241e-07	 -2.102181e-06	 4.174675e-14
0	 0	 7.713564e-08
-3.237363e-07	 -1.571949e-06	 7.374354e-08
-3.237355e-07	 -1.571950e-06	 -7.374346e-08
1.584232e-12	 -2.112488e-12	 -7.713558e-08
3.237384e-07	 1.571946e-06	 -7.374351e-08
4.578264e-07	 2.102178e-06	 -4.224454e-14
3.237375e-07	 1.571947e-06	 7.374342e-08
0	 0	 7.713552e-08
0	 0	 1.424092e-07
-4.160209e-07	 -2.099619e-06	 6.182960e-14
0	 0	 1.424091e-07
1.442241e-12	 -2.113708e-12	 -1.424091e-07
4.160229e-07	 2.099616e-06	 -6.232635e-14
1.301428e-12	 -2.111423e-12	 -2.071736e-07
3.746838e-07	 2.094236e-06	 -8.223881e-14
0	 0	 2.071738e-07
-2.625601e-07	 -1.571133e-06	 1.473718e-07
2.625618e-07	 1.571130e-06	 -1.473717e-07
2.625611e-07	 1.571131e-06	 1.473716e-07
0	 0	 2.071735e-07
-3.746819e-07	 -2.094239e-06	 8.174310e-14
-2.625594e-07	 -1.571134e-06	 -1.473717e-07
-3.328668e-07	 -2.088456e-06	 1.016042e-13
3.328684e-07	 2.088453e-06	 -1.020989e-13
0	 0	 2.718139e-07
1.159419e-12	 -2.108148e-12	 -2.718138e-07
0	 0	 2.718136e-07
0	 0	 3.368075e-07
-2.011175e-07	 -1.564680e-06	 2.207114e-07
-2.908298e-07	 -2.080179e-06	 1.216344e-13
-2.011170e-07	 -1.564681e-06	 -2.207112e-07
1.016420e-12	 -2.101944e-12	 -3.368074e-07
2.011188e-07	 1.564678e-06	 -2.207113e-07
2.908313e-07	 2.080176e-06	 -1.221281e-13
2.011183e-07	 1.564679e-06	 2.207111e-07
0	 0	 3.368072e-07
-5.632818e-07	 -1.365267e-06	 -2.502553e-13
5.632824e-07	 1.365262e-06	 2.496323e-13
-3.690947e-07	 -2.402656e-06	 -4.475290e-14
3.690972e-07	 2.402656e-06	 4.424858e-14
0	 0	 -5.368109e-08
0	 0	 -5.368038e-08
0	 0	 1.000922e-07
1.799304e-12	 1.725823e-14	 -1.000923e-07
0	 0	 1.000923e-07
4.519670e-13	 -3.130885e-12	 5.368073e-08
1.482816e-12	 7.518439e-14	 -2.460304e-07
4.548630e-13	 -3.129799e-12	 1.275796e-07
3.864303e-07	 2.401746e-06	 5.119953e-14
0	 0	 -1.275800e-07
0	 0	 -1.275791e-07
-4.236900e-07	 -1.340158e-06	 -3.112380e-13
4.236907e-07	 1.340154e-06	 3.106208e-13
0	 0	 2.460303e-07
0	 0	 2.460305e-07
-3.864282e-07	 -2.401746e-06	 -5.169913e-14
2.864372e-07	 1.311461e-06	 3.715712e-13
4.019753e-07	 2.392706e-06	 5.809550e-14
0	 0	 -2.014691e-07
4.568895e-13	 -3.124107e-12	 2.014686e-07
0	 0	 -2.014681e-07
0	 0	 3.918449e-07
1.168998e-12	 1.329883e-13	 -3.918450e-07
0	 0	 3.918451e-07
-2.864365e-07	 -1.311465e-06	 -3.721826e-13
-4.019736e-07	 -2.392706e-06	 -5.859043e-14
-9.587368e-07	 -2.357390e-07	 -2.164953e-13
9.587372e-07	 2.357349e-07	 2.158772e-13
-6.762954e-07	 -1.602815e-07	 3.878135e-09
3.081189e-13	 -2.905570e-12	 -3.056685e-09
-1.160623e-07	 -1.432255e-06	 6.607784e-08
-1.199106e-07	 -1.921306e-06	 -1.333664e-13
1.199140e-07	 1.921309e-06	 1.328630e-13
1.160642e-07	 1.432257e-06	 6.607820e-08
-6.762953e-07	 -1.602831e-07	 -3.878544e-09
6.762958e-07	 1.602777e-07	 -3.878305e-09
6.762957e-07	 1.602793e-07	 3.878713e-09
0	 0	 3.056378e-09
0	 0	 3.056990e-09
2.430162e-12	 2.257833e-12	 -6.980520e-08
0	 0	 6.980501e-08
1.160655e-07	 1.432258e-06	 -6.607794e-08
0	 0	 6.980539e-08
-1.160610e-07	 -1.432254e-06	 -6.607809e-08
-8.774463e-07	 -2.038293e-07	 -2.438285e-13
-1.689988e-07	 -1.898949e-06	 -1.620571e-13
0	 0	 1.273054e-07
0	 0	 1.273059e-07
3.371588e-13	 -2.891765e-12	 -7.053961e-09
0	 0	 7.053616e-09
0	 0	 7.054305e-09
8.774468e-07	 2.038252e-07	 2.432123e-13
1.690021e-07	 1.898953e-06	 1.615573e-13
2.291594e-12	 2.312390e-12	 -1.273057e-07
1.891878e-07	 1.402178e-06	 1.300331e-07
-7.968769e-07	 -1.725679e-07	 -2.710825e-13
5.590364e-07	 1.139350e-07	 -8.438670e-09
-2.166979e-07	 -1.874804e-06	 -1.905799e-13
1.891889e-07	 1.402179e-06	 -1.300327e-07
-1.891849e-07	 -1.402175e-06	 -1.300330e-07
0	 0	 1.100325e-08
-5.590359e-07	 -1.139388e-07	 8.438461e-09
3.656525e-13	 -2.876995e-12	 -1.100363e-08
0	 0	 1.100401e-08
2.152823e-12	 2.363505e-12	 -1.843857e-07
0	 0	 1.843854e-07
-1.891861e-07	 -1.402176e-06	 1.300326e-07
0	 0	 1.843860e-07
-5.590357e-07	 -1.139403e-07	 -8.438964e-09
5.590362e-07	 1.139366e-07	 8.439172e-09
7.968775e-07	 1.725638e-07	 2.704683e-13
2.167010e-07	 1.874808e-06	 1.900836e-13
0	 0	 1.498721e-08
-7.153179e-07	 -1.409122e-07	 -2.982982e-13
7.153184e-07	 1.409082e-07	 2.976860e-13
0	 0	 1.498806e-08
0	 0	 2.413655e-07
2.650346e-07	 1.850311e-06	 2.185893e-13
0	 0	 2.413661e-07
-2.650317e-07	 -1.850308e-06	 -2.190821e-13
3.940810e-13	 -2.861599e-12	 -1.498764e-08
2.012596e-12	 2.414366e-12	 -2.413658e-07
-4.410541e-07	 -6.792755e-08	 1.304265e-08
-2.611097e-07	 -1.367946e-06	 1.937062e-07
3.129040e-07	 1.823935e-06	 2.472471e-13
2.611112e-07	 1.367948e-06	 1.937069e-07
0	 0	 1.901983e-08
-6.333399e-07	 -1.094055e-07	 -3.255512e-13
4.222546e-13	 -2.845234e-12	 -1.902029e-08
4.410547e-07	 6.792381e-08	 -1.304289e-08
6.333405e-07	 1.094015e-07	 3.249409e-13
4.410545e-07	 6.792536e-08	 1.304349e-08
0	 0	 1.902075e-08
0	 0	 2.986035e-07
-3.129014e-07	 -1.823932e-06	 -2.477364e-13
1.870430e-12	 2.463044e-12	 -2.986038e-07
2.611122e-07	 1.367950e-06	 -1.937064e-07
0	 0	 2.986042e-07
-4.410539e-07	 -6.792910e-08	 -1.304324e-08
-2.611087e-07	 -1.367945e-06	 -1.937067e-07
0	 0	 6.163059e-08
-4.412761e-14	 -2.336004e-12	 -6.163080e-08
1.410141e-06	 -8.402049e-07	 1.456530e-13
0	 0	 6.163100e-08
0	 0	 3.261292e-08
2.780257e-12	 3.606916e-12	 -3.261318e-08