# vtk DataFile Version 3.0
Unstructured Grid Example
ASCII
DATASET UNSTRUCTURED_GRID
POINTS 1641 float
-9.500000e-01	 0	 0
-9.500000e-01	 0	 3.750000e-01
-9.500000e-01	 0	 1.125000e+00
-9.500000e-01	 0	 1.500000e+00
-9.500000e-01	 0	 1.875000e+00
-9.500000e-01	 0	 2.250000e+00
-9.500000e-01	 0	 2.625000e+00
-9.500000e-01	 0	 3
-9.500000e-01	 0	 7.500000e-01
-9.341401e-01	 -1.728649e-01	 1.500000e+00
-9.341401e-01	 -1.728649e-01	 0
-9.341401e-01	 -1.728649e-01	 3.000000e+00
-9.341401e-01	 1.728649e-01	 2.250000e+00
-9.341401e-01	 1.728649e-01	 0
-9.341401e-01	 1.728649e-01	 1.500000e+00
-9.341401e-01	 1.728649e-01	 3.000000e+00
-9.341401e-01	 -1.728649e-01	 7.500000e-01
-9.341401e-01	 -1.728649e-01	 2.250000e+00
-9.341401e-01	 1.728649e-01	 7.500000e-01
-8.832989e-01	 -3.496900e-01	 1.125000e+00
-8.832989e-01	 -3.496900e-01	 1.875000e+00
-8.832989e-01	 -3.496900e-01	 2.625000e+00
-8.832989e-01	 -3.496900e-01	 2.250000e+00
-8.832989e-01	 3.496900e-01	 1.125000e+00
-8.832989e-01	 -3.496900e-01	 0
-8.832989e-01	 -3.496900e-01	 3.000000e+00
-8.832989e-01	 -3.496900e-01	 3.750000e-01
-8.832989e-01	 -3.496900e-01	 7.500000e-01
-8.832989e-01	 3.496900e-01	 3.750000e-01
-8.832989e-01	 3.496900e-01	 7.500000e-01
-8.832989e-01	 3.496900e-01	 2.250000e+00
-8.832989e-01	 3.496900e-01	 2.625000e+00
-8.832989e-01	 3.496900e-01	 0
-8.832989e-01	 3.496900e-01	 1.875000e+00
-8.832989e-01	 3.496900e-01	 3.000000e+00
-8.832989e-01	 -3.496900e-01	 1.500000e+00
-8.832989e-01	 3.496900e-01	 1.500000e+00
-8.787500e-01	 0	 2.250000e+00
-8.787500e-01	 0	 0
-8.787500e-01	 0	 1.500000e+00
-8.787500e-01	 0	 3
-8.787500e-01	 0	 7.500000e-01
-8.149622e-01	 -3.223238e-01	 7.500000e-01
-8.149622e-01	 3.223238e-01	 7.500000e-01
-8.149622e-01	 -3.223238e-01	 2.250000e+00
-8.149622e-01	 3.223238e-01	 2.250000e+00
-8.149622e-01	 -3.223238e-01	 0
-8.149622e-01	 -3.223238e-01	 1.500000e+00
-8.149622e-01	 -3.223238e-01	 3
-8.149622e-01	 3.223238e-01	 1.500000e+00
-8.149622e-01	 3.223238e-01	 0
-8.149622e-01	 3.223238e-01	 3
-8.075000e-01	 0	 7.500000e-01
-8.075000e-01	 0	 2.250000e+00
-8.075000e-01	 0	 3.750000e-01
-8.075000e-01	 0	 1.875000e+00
-8.075000e-01	 0	 2.625000e+00
-8.075000e-01	 0	 0
-8.075000e-01	 0	 1.125000e+00
-8.075000e-01	 0	 1.500000e+00
-8.075000e-01	 0	 3
-7.951457e-01	 -5.198493e-01	 7.500000e-01
-7.951457e-01	 5.198493e-01	 7.500000e-01
-7.951457e-01	 -5.198493e-01	 0
-7.951457e-01	 -5.198493e-01	 1.500000e+00
-7.951457e-01	 -5.198493e-01	 2.250000e+00
-7.951457e-01	 -5.198493e-01	 3
-7.951457e-01	 5.198493e-01	 0
-7.951457e-01	 5.198493e-01	 1.500000e+00
-7.951457e-01	 5.198493e-01	 2.250000e+00
-7.951457e-01	 5.198493e-01	 3
-7.894916e-01	 -1.451644e-01	 7.500000e-01
-7.894916e-01	 1.451644e-01	 7.500000e-01
-7.894916e-01	 1.451644e-01	 0
-7.894916e-01	 1.451644e-01	 3
-7.894916e-01	 -1.451644e-01	 0
-7.894916e-01	 -1.451644e-01	 1.500000e+00
-7.894916e-01	 -1.451644e-01	 2.250000e+00
-7.894916e-01	 -1.451644e-01	 3
-7.894916e-01	 1.451644e-01	 1.500000e+00
-7.894916e-01	 1.451644e-01	 2.250000e+00
-7.430021e-01	 -2.929055e-01	 1.500000e+00
-7.430021e-01	 2.929055e-01	 1.500000e+00
-7.430021e-01	 -2.929055e-01	 2.250000e+00
-7.430021e-01	 -2.929055e-01	 0
-7.430021e-01	 -2.929055e-01	 3.000000e+00
-7.430021e-01	 2.929055e-01	 3.750000e-01
-7.430021e-01	 -2.929055e-01	 3.750000e-01
-7.430021e-01	 -2.929055e-01	 1.125000e+00
-7.430021e-01	 -2.929055e-01	 1.875000e+00
-7.430021e-01	 -2.929055e-01	 2.625000e+00
-7.430021e-01	 2.929055e-01	 1.125000e+00
-7.430021e-01	 2.929055e-01	 0
-7.430021e-01	 2.929055e-01	 1.875000e+00
-7.430021e-01	 2.929055e-01	 2.250000e+00
-7.430021e-01	 2.929055e-01	 2.625000e+00
-7.430021e-01	 2.929055e-01	 3.000000e+00
-7.430021e-01	 2.929055e-01	 7.500000e-01
-7.430021e-01	 -2.929055e-01	 7.500000e-01
-7.362500e-01	 0	 0
-7.362500e-01	 0	 7.500000e-01
-7.362500e-01	 0	 1.500000e+00
-7.362500e-01	 0	 2.250000e+00
-7.362500e-01	 0	 3
-6.717514e-01	 -6.717514e-01	 2.625000e+00
-6.717514e-01	 6.717514e-01	 2.625000e+00
-6.717514e-01	 -6.717514e-01	 0
-6.717514e-01	 -6.717514e-01	 3.750000e-01
-6.717514e-01	 -6.717514e-01	 7.500000e-01
-6.717514e-01	 -6.717514e-01	 1.125000e+00
-6.717514e-01	 -6.717514e-01	 1.875000e+00
-6.717514e-01	 -6.717514e-01	 3.000000e+00
-6.717514e-01	 -6.717514e-01	 2.250000e+00
-6.717514e-01	 6.717514e-01	 1.500000e+00
-6.717514e-01	 6.717514e-01	 0
-6.717514e-01	 6.717514e-01	 3.750000e-01
-6.717514e-01	 6.717514e-01	 7.500000e-01
-6.717514e-01	 6.717514e-01	 1.125000e+00
-6.717514e-01	 6.717514e-01	 1.875000e+00
-6.717514e-01	 6.717514e-01	 3.000000e+00
-6.717514e-01	 -6.717514e-01	 1.500000e+00
-6.717514e-01	 6.717514e-01	 2.250000e+00
-6.682985e-01	 -2.618048e-01	 0
-6.682985e-01	 -2.618048e-01	 1.500000e+00
-6.682985e-01	 -2.618048e-01	 3
-6.682985e-01	 -2.618048e-01	 7.500000e-01
-6.682985e-01	 -2.618048e-01	 2.250000e+00
-6.682985e-01	 2.618048e-01	 7.500000e-01
-6.682985e-01	 2.618048e-01	 2.250000e+00
-6.682985e-01	 2.618048e-01	 0
-6.682985e-01	 2.618048e-01	 1.500000e+00
-6.682985e-01	 2.618048e-01	 3
-6.665713e-01	 -4.348738e-01	 2.250000e+00
-6.665713e-01	 -4.348738e-01	 7.500000e-01
-6.665713e-01	 4.348738e-01	 7.500000e-01
-6.665713e-01	 4.348738e-01	 2.250000e+00
-6.665713e-01	 -4.348738e-01	 0
-6.665713e-01	 -4.348738e-01	 3
-6.665713e-01	 4.348738e-01	 0
-6.665713e-01	 4.348738e-01	 1.500000e+00
-6.665713e-01	 4.348738e-01	 3
-6.665713e-01	 -4.348738e-01	 1.500000e+00
-6.650000e-01	 0	 7.500000e-01
-6.650000e-01	 0	 0
-6.650000e-01	 0	 3.750000e-01
-6.650000e-01	 0	 1.125000e+00
-6.650000e-01	 0	 1.500000e+00
-6.650000e-01	 0	 1.875000e+00
-6.650000e-01	 0	 2.625000e+00
-6.650000e-01	 0	 3
-6.650000e-01	 0	 2.250000e+00
-6.383743e-01	 -1.144482e-01	 0
-6.383743e-01	 -1.144482e-01	 3.000000e+00
-6.383743e-01	 -1.144482e-01	 7.500000e-01
-6.383743e-01	 -1.144482e-01	 1.500000e+00
-6.383743e-01	 -1.144482e-01	 2.250000e+00
-6.383743e-01	 1.144482e-01	 7.500000e-01
-6.383743e-01	 1.144482e-01	 1.500000e+00
-6.383743e-01	 1.144482e-01	 0
-6.383743e-01	 1.144482e-01	 2.250000e+00
-6.383743e-01	 1.144482e-01	 3.000000e+00
-6.189903e-01	 -6.189903e-01	 0
-6.189903e-01	 -6.189903e-01	 1.500000e+00
-6.189903e-01	 -6.189903e-01	 3.000000e+00
-6.189903e-01	 6.189903e-01	 2.250000e+00
-6.189903e-01	 6.189903e-01	 0
-6.189903e-01	 6.189903e-01	 1.500000e+00
-6.189903e-01	 6.189903e-01	 3.000000e+00
-6.189903e-01	 -6.189903e-01	 2.250000e+00
-6.189903e-01	 -6.189903e-01	 7.500000e-01
-6.189903e-01	 6.189903e-01	 7.500000e-01
-5.937500e-01	 0	 0
-5.937500e-01	 0	 7.500000e-01
-5.937500e-01	 0	 1.500000e+00
-5.937500e-01	 0	 2.250000e+00
-5.937500e-01	 0	 3
-5.917666e-01	 2.294176e-01	 1.875000e+00
-5.917666e-01	 2.294176e-01	 2.250000e+00
-5.917666e-01	 -2.294176e-01	 2.250000e+00
-5.917666e-01	 -2.294176e-01	 0
-5.917666e-01	 -2.294176e-01	 2.625000e+00
-5.917666e-01	 -2.294176e-01	 3
-5.917666e-01	 -2.294176e-01	 1.500000e+00
-5.917666e-01	 -2.294176e-01	 1.875000e+00
-5.917666e-01	 2.294176e-01	 0
-5.917666e-01	 2.294176e-01	 2.625000e+00
-5.917666e-01	 2.294176e-01	 3
-5.917666e-01	 2.294176e-01	 1.500000e+00
-5.917666e-01	 -2.294176e-01	 3.750000e-01
-5.917666e-01	 -2.294176e-01	 7.500000e-01
-5.917666e-01	 -2.294176e-01	 1.125000e+00
-5.917666e-01	 2.294176e-01	 7.500000e-01
-5.917666e-01	 2.294176e-01	 1.125000e+00
-5.917666e-01	 2.294176e-01	 3.750000e-01
-5.620800e-01	 5.620800e-01	 1.125000e+00
-5.620800e-01	 -5.620800e-01	 1.125000e+00
-5.620800e-01	 -5.620800e-01	 3.750000e-01
-5.620800e-01	 -5.620800e-01	 7.500000e-01
-5.620800e-01	 -5.620800e-01	 1.875000e+00
-5.620800e-01	 -5.620800e-01	 2.625000e+00
-5.620800e-01	 5.620800e-01	 3.750000e-01
-5.620800e-01	 5.620800e-01	 7.500000e-01
-5.620800e-01	 5.620800e-01	 1.875000e+00
-5.620800e-01	 -5.620800e-01	 0
-5.620800e-01	 -5.620800e-01	 1.500000e+00
-5.620800e-01	 -5.620800e-01	 2.250000e+00
-5.620800e-01	 -5.620800e-01	 3
-5.620800e-01	 5.620800e-01	 0
-5.620800e-01	 5.620800e-01	 1.500000e+00
-5.620800e-01	 5.620800e-01	 2.250000e+00
-5.620800e-01	 5.620800e-01	 3
-5.620800e-01	 5.620800e-01	 2.625000e+00
-5.250231e-01	 -3.396892e-01	 7.500000e-01
-5.250231e-01	 3.396892e-01	 1.500000e+00
-5.250231e-01	 3.396892e-01	 2.250000e+00
-5.250231e-01	 3.396892e-01	 7.500000e-01
-5.250231e-01	 -3.396892e-01	 2.250000e+00
-5.250231e-01	 -3.396892e-01	 0
-5.250231e-01	 -3.396892e-01	 1.500000e+00
-5.250231e-01	 -3.396892e-01	 3.000000e+00
-5.250231e-01	 3.396892e-01	 0
-5.250231e-01	 3.396892e-01	 3.000000e+00
-5.225000e-01	 0	 1.500000e+00
-5.225000e-01	 0	 2.250000e+00
-5.225000e-01	 0	 0
-5.225000e-01	 0	 3.750000e-01
-5.225000e-01	 0	 7.500000e-01
-5.225000e-01	 0	 1.125000e+00
-5.225000e-01	 0	 1.875000e+00
-5.225000e-01	 0	 2.625000e+00
-5.225000e-01	 0	 3
-5.198493e-01	 7.951457e-01	 7.500000e-01
-5.198493e-01	 -7.951457e-01	 7.500000e-01
-5.198493e-01	 -7.951457e-01	 0
-5.198493e-01	 -7.951457e-01	 1.500000e+00
-5.198493e-01	 -7.951457e-01	 2.250000e+00
-5.198493e-01	 -7.951457e-01	 3
-5.198493e-01	 7.951457e-01	 0
-5.198493e-01	 7.951457e-01	 1.500000e+00
-5.198493e-01	 7.951457e-01	 2.250000e+00
-5.198493e-01	 7.951457e-01	 3
-5.143216e-01	 -1.961513e-01	 2.250000e+00
-5.143216e-01	 1.961513e-01	 7.500000e-01
-5.143216e-01	 1.961513e-01	 1.500000e+00
-5.143216e-01	 -1.961513e-01	 7.500000e-01
-5.143216e-01	 -1.961513e-01	 0
-5.143216e-01	 -1.961513e-01	 3.000000e+00
-5.143216e-01	 -1.961513e-01	 1.500000e+00
-5.143216e-01	 1.961513e-01	 2.250000e+00
-5.143216e-01	 1.961513e-01	 0
-5.143216e-01	 1.961513e-01	 3.000000e+00
-5.020120e-01	 -5.020120e-01	 7.500000e-01
-5.020120e-01	 -5.020120e-01	 1.500000e+00
-5.020120e-01	 5.020120e-01	 7.500000e-01
-5.020120e-01	 5.020120e-01	 1.500000e+00
-5.020120e-01	 -5.020120e-01	 0
-5.020120e-01	 -5.020120e-01	 2.250000e+00
-5.020120e-01	 -5.020120e-01	 3.000000e+00
-5.020120e-01	 5.020120e-01	 0
-5.020120e-01	 5.020120e-01	 2.250000e+00
-5.020120e-01	 5.020120e-01	 3.000000e+00
-4.847636e-01	 8.158725e-02	 7.500000e-01
-4.847636e-01	 -8.158725e-02	 7.500000e-01
[...]
POINT_DATA 1641
SCALARS pres_adim float 1
LOOKUP_TABLE default
1.951936e+02
2.123065e+02
2.774098e+02
2.881122e+02
2.776967e+02
2.484228e+02
2.121994e+02
1.947823e+02
2.481248e+02
2.698568e+02
1.818755e+02
1.815463e+02
2.321367e+02
1.814756e+02
2.699140e+02
1.813821e+02
2.318626e+02
2.320719e+02
2.320454e+02
2.020607e+02
2.018754e+02
1.546617e+02
1.806222e+02
2.023267e+02
1.420816e+02
1.423001e+02
1.545807e+02
1.807890e+02
1.543831e+02
1.809706e+02
1.807103e+02
1.544816e+02
1.416187e+02
2.020374e+02
1.419619e+02
2.095902e+02
2.097804e+02
2.443367e+02
1.920909e+02
2.834750e+02
1.916825e+02
2.440401e+02
1.777933e+02
1.779692e+02
1.776314e+02
1.777144e+02
1.397799e+02
2.062303e+02
1.399914e+02
2.063866e+02
1.393493e+02
1.396889e+02
2.312801e+02
2.315375e+02
1.987097e+02
2.584282e+02
1.986147e+02
1.832096e+02
2.581820e+02
2.681092e+02
1.828523e+02
9.984136e+01
9.988146e+01
7.776812e+01
1.157548e+02
9.947069e+01
7.833728e+01
7.753921e+01
1.161295e+02
9.952829e+01
7.793786e+01
2.152738e+02
2.154241e+02
1.698349e+02
1.697528e+02
1.701095e+02
2.501271e+02
2.154573e+02
1.698135e+02
2.500920e+02
2.155087e+02
1.939873e+02
1.939928e+02
1.674304e+02
1.326915e+02
1.328345e+02
1.438277e+02
1.439137e+02
1.869856e+02
1.868525e+02
1.439613e+02
1.871041e+02
1.324170e+02
1.868841e+02
1.674959e+02
1.439135e+02
1.326996e+02
1.676959e+02
1.675491e+02
1.692055e+02
2.119500e+02
2.453555e+02
2.121714e+02
1.689009e+02
5.198180e-02
-1.232560e-01
-7.813697e-02
2.172226e-02
1.088614e-01
-2.357796e-02
-5.779545e-02
4.781213e-02
5.997884e-02
2.525289e-01
-3.357776e-02
-4.351860e-02
-4.183551e-04
1.228181e-01
2.346208e-01
-1.649577e-01
-1.182951e-01
4.841589e-02
1.208282e+02
1.748397e+02
1.209022e+02
1.511732e+02
1.510988e+02
1.512776e+02
1.511417e+02
1.207507e+02
1.746544e+02
1.209770e+02
9.202384e+01
9.231059e+01
9.233955e+01
9.205943e+01
7.251906e+01
7.295854e+01
7.246349e+01
1.070623e+02
7.280417e+01
1.069327e+02
1.867915e+02
1.510258e+02
1.625552e+02
2.074990e+02
2.155282e+02
2.076597e+02
1.624891e+02
1.507838e+02
1.869725e+02
1.369481e+02
1.367396e+02
1.692929e+02
1.956380e+02
1.694172e+02
1.693560e+02
1.954199e+02
1.369441e+02
1.694380e+02
1.368868e+02
-8.048089e-02
-1.118018e-01
4.164437e-02
4.305277e-02
-2.297582e-02
2.301088e-01
-1.481727e-01
5.426602e-02
1.000397e-01
-6.073403e-03
1.300404e+02
1.584398e+02
1.821761e+02
1.585773e+02
1.298634e+02
1.431802e+02
1.292387e+02
1.292181e+02
1.049545e+02
1.127493e+02
1.049691e+02
1.489715e+02
1.434224e+02
1.050781e+02
1.129674e+02
1.052415e+02
1.486077e+02
1.127666e+02
1.292560e+02
1.434569e+02
1.293040e+02
1.432609e+02
1.129073e+02
3.080895e-02
-1.218184e-02
-1.533374e-02
7.083430e-02
-4.784968e-02
1.539179e-02
6.314416e-03
-1.419442e-02
1.011147e-01
-9.758132e-02
-7.624859e-02
3.136133e-02
1.195910e-02
3.606977e-02
1.092844e-01
1.700497e-02
-3.698625e-02
-3.910780e-02
7.027456e+01
8.070697e+01
7.014870e+01
7.025443e+01
7.014669e+01
5.682042e+01
8.108334e+01
5.699013e+01
5.712940e+01
5.734120e+01
1.472903e+02
1.287037e+02
1.073486e+02
1.142649e+02
1.285970e+02
1.416602e+02
1.417385e+02
1.142347e+02
1.072220e+02
-9.984939e+01
-9.970133e+01
-7.776972e+01
-1.159035e+02
-9.936112e+01
-7.825165e+01
-7.769137e+01
-1.157347e+02
-9.944989e+01
-7.822611e+01
1.046652e+02
1.046683e+02
1.196519e+02
1.046761e+02
8.667384e+01
8.663911e+01
1.201375e+02
1.046683e+02
8.694797e+01
8.704841e+01
3.553598e-02
-2.961461e-02
-3.590099e-02
-4.434540e-02
-1.229155e-01
-5.846247e-04
-2.637397e-02
1.122061e-01
-1.568964e-02
9.860648e-02
1.091555e+02
1.091664e+02
9.174241e+01
1.249619e+02
9.163474e+01
1.092291e+02
9.188840e+01
1.246858e+02
1.092255e+02
9.186322e+01
1.127197e+02
9.908716e+01
8.443300e+01
9.901812e+01
8.436076e+01
2.298768e-02
-1.683918e-01
-1.373865e-01
-5.985964e-02
-5.903020e-02
-8.118949e-02
1.994844e-02
-1.621798e-01
1.838228e-01
1.226626e-01
2.129387e-01
-1.768754e-02
-2.877901e-02
-4.266232e-02
1.107763e-01
-1.867645e-01
-6.197986e-02
7.212565e-03
8.751711e+01
9.101875e+01
7.154195e+01
7.158290e+01
9.055067e+01
8.719100e+01
7.965422e+01
7.129375e+01
7.133579e+01
7.966186e+01
6.764251e+01
7.961927e+01
7.964683e+01
6.771102e+01
8.720098e+01
8.752338e+01
6.735122e+01
6.731391e+01
-9.203530e+01
-9.197005e+01
-7.247793e+01
-7.287172e+01
-9.223062e+01
-7.258356e+01
-1.070209e+02
-7.293619e+01
-1.069038e+02
-9.233752e+01
6.254975e+01
6.563641e+01
7.201187e+01
7.847792e+01
8.162675e+01
7.850713e+01
7.205616e+01
6.562659e+01
6.250503e+01
4.191835e+01
4.187191e+01
3.550269e+01
3.551791e+01
4.791019e+01
3.589452e+01
4.738185e+01
4.185957e+01
3.598947e+01
4.184515e+01
-4.373155e-02
-1.368185e-01
-5.501673e-03
6.138309e-02
-7.413732e-02
2.298632e-01
-7.502929e-02
-2.878041e-01
2.876250e-01
-5.834551e-02
5.627234e+01
4.885364e+01
4.881458e+01
4.909873e+01
4.913421e+01
5.625915e+01
5.627679e+01
5.622298e+01
6.341781e+01
6.380011e+01
-2.020899e+02
-1.418337e+02
-2.017876e+02
-1.422623e+02
-2.095453e+02
-1.418623e+02
-1.420593e+02
-2.021605e+02
-2.019852e+02
-1.545303e+02
-1.544730e+02
-1.808151e+02
-1.805665e+02
-1.546409e+02
-2.096897e+02
-1.544803e+02
-1.806708e+02
-1.808446e+02
-7.029673e+01
-8.103043e+01
-7.020406e+01
-7.022578e+01
-7.034296e+01
-5.700556e+01
-5.708695e+01
-5.685178e+01
-8.103596e+01
-5.698031e+01
5.445500e+01
6.153414e+01
4.787664e+01
5.447255e+01
4.783662e+01
4.797146e+01
6.138063e+01
5.446391e+01
4.796365e+01
5.443303e+01
-1.778290e+02
-1.775838e+02
-1.778508e+02
-1.776834e+02
-1.395474e+02
-1.399614e+02
-1.395780e+02
-2.063132e+02
-1.397697e+02
-2.061855e+02
1.389700e-03
-7.127507e-02
-2.178296e-01
5.269021e-02
-1.021620e-01
-5.986723e-02
7.614194e-02
2.070083e-02
-6.618395e-02
-5.847581e-02
1.981543e-01
1.271770e-01
-2.748890e-01
-2.201408e-01
1.587537e-01
2.586739e-01
-3.612917e-02
-5.145189e-02
-1.939414e+02
-1.438608e+02
-1.438776e+02
-1.674870e+02
-1.939850e+02
-1.325196e+02
-1.867923e+02
-1.674109e+02
-1.439714e+02
-1.328228e+02
-1.870199e+02
-1.868942e+02
-1.325688e+02
-1.327123e+02
-1.870148e+02
-1.676025e+02
-1.676096e+02
-1.439174e+02
3.378362e+01
3.235633e+01
3.964593e+01
4.131078e+01
3.964495e+01
3.657510e+01
3.375233e+01
3.232500e+01
3.249521e+01
3.653988e+01
3.655935e+01
3.388439e+01
3.251348e+01
3.947121e+01
4.107403e+01
3.658296e+01
3.386922e+01
3.948367e+01
-1.207364e+02
-1.747871e+02
-1.209147e+02
-1.208097e+02
-1.747264e+02
-1.209061e+02
-1.512529e+02
-1.511165e+02
-1.512392e+02
-1.511620e+02
-5.555102e-02
2.025088e-02
7.576642e-02
-3.828930e-02
1.366612e-01
-4.803581e-02
-2.131601e-01
1.907799e-01
-1.350703e-02
-3.263514e-02
-4.193322e+01
-4.196539e+01
-4.194894e+01
-3.566929e+01
-4.777094e+01
-4.194152e+01
-3.561311e+01
-3.556822e+01
-3.555117e+01
-4.784722e+01
3.086953e+01
3.096789e+01
2.063399e+01
2.485232e+01
2.482449e+01
2.037973e+01
1.628567e+01
1.828827e+01
1.626289e+01
1.830902e+01
2.761014e+01
2.761410e+01
2.489955e+01
2.759172e+01
2.489553e+01
2.760138e+01
1.825324e+01
1.642630e+01
1.826824e+01
1.645555e+01
-1.292838e+02
-1.292680e+02
-1.489110e+02
-1.128155e+02
-1.128665e+02
-1.049439e+02
-1.128109e+02
-1.049984e+02
-1.293181e+02
-1.050456e+02
-1.128871e+02
-1.050972e+02
-1.434118e+02
-1.293504e+02
-1.434771e+02
-1.433447e+02
-1.487517e+02
-1.433151e+02
-1.047247e+02
-1.200666e+02
-8.672145e+01
-8.666991e+01
-8.685415e+01
-8.686622e+01
-1.047622e+02
-1.047322e+02
-1.198359e+02
-1.047240e+02
4.050404e-02
-1.571703e-02
2.402124e-02
2.057082e+01
1.844555e+01
5.496215e-02
-1.276642e-02
5.149850e-02
5.533797e-02
3.182045e-02
1.430650e-02
-5.872153e-03
-1.899370e-02
1.733610e+01
1.735166e+01
1.680722e+01
1.979692e+01
1.678607e+01
1.844537e+01
5.877766e-02
-8.502320e-02
-1.216240e-01
-8.858049e-02
-7.354559e-03
7.373622e-02
9.383315e-02
1.979851e+01
-2.701105e+02
-1.815771e+02
-2.697094e+02
-1.815547e+02
-1.816221e+02
-1.812885e+02
-2.320856e+02
-2.319793e+02
-2.318924e+02
-2.321169e+02
-8.750140e+01
-8.732735e+01
-9.093943e+01
-8.752265e+01
-8.734950e+01
-7.969628e+01
-9.071672e+01
-7.133541e+01
-6.740689e+01
-7.971878e+01
-7.970824e+01
-6.733103e+01
-6.755592e+01
-6.754746e+01
-7.148158e+01
-7.138513e+01
-7.147922e+01
-7.968826e+01
-2.153977e+02
-1.698610e+02
-1.698069e+02
-2.153078e+02
-2.500170e+02
-2.154802e+02
-1.699779e+02
-2.502092e+02
-2.154964e+02
-1.697148e+02
5.069430e-02
8.038771e-03
-6.011504e-02
-2.053143e+01
-1.630307e+01
-1.826114e+01
-1.629206e+01
3.462346e-02
9.062876e-03
3.663337e-02
-1.389483e-02
8.490061e+00
1.029881e+01
9.269233e+00
8.462171e+00
9.274999e+00
9.259160e+00
8.501656e+00
8.490565e+00
9.259080e+00
1.203515e-02
1.241147e-02
2.602259e-02
-1.633149e+01
-1.827908e+01
-1.630029e+01
-2.058298e+01
-1.823878e+01
1.024571e+01
-1.828087e+01
-5.629302e+01
-6.372242e+01
-4.888553e+01
-4.881398e+01
-5.628447e+01
-6.353671e+01
-5.627567e+01
-4.904680e+01
-4.902284e+01
-5.628773e+01
-1.368133e+02
-1.694642e+02
-1.366965e+02
-1.370872e+02
-1.369627e+02
-1.953592e+02
-1.694372e+02
-1.693231e+02
-1.694236e+02
-1.956006e+02
-2.556580e-02
-3.959215e+01
-4.124498e+01
5.181774e-02
1.914215e-02
4.689148e-02
2.055681e-02
-3.384375e+01
-3.234783e+01
-3.653998e+01
-3.655045e+01
-3.372927e+01
-3.231952e+01
-3.961340e+01
1.031527e-02
-1.954366e-02
5.291448e-02
3.112406e-02
1.774062e-02
-1.300907e-02
2.657726e-02
-8.824089e-03
2.856587e-02
2.152741e-02
-1.952265e-02
-3.655541e+01
-3.249840e+01
-3.950845e+01
-4.113189e+01
-3.953138e+01
-3.655868e+01
-3.383411e+01
-3.247799e+01
-3.373198e+01
2.284655e-02
-4.484789e-03
-1.092592e+02
-1.091734e+02
-9.169086e+01
-1.249579e+02
-1.092666e+02
-9.156511e+01
-9.203740e+01
-1.245176e+02
-9.200134e+01
-1.092238e+02
-5.445186e+01
-2.755276e+01
3.571976e-02
-2.756657e+01
-6.124311e+01
-4.783127e+01
-6.151832e+01
-5.445347e+01
-4.778071e+01
-3.093529e+01
-2.481180e+01
-2.481352e+01
-2.754716e+01
-9.181305e+00
1.667421e-03
4.781804e-02
-3.344125e-02
-1.875772e-03
4.890141e-02
-2.350653e-02
-1.279964e-02
3.854629e-02
-4.456893e-02
-8.541717e+00
-8.543393e+00
-1.027308e+01
-9.202834e+00
-2.756868e+01
-2.497576e+01
-2.496605e+01
-3.083302e+01
-4.810014e+01
-5.444516e+01
-4.808300e+01
-5.443196e+01
-8.463584e+00
-1.027161e+01
-8.493313e+00
-9.176620e+00
-9.205139e+00
-1.735683e+01
-1.736292e+01
-1.976978e+01
-1.976721e+01
-1.837148e+01
-1.837018e+01
-1.951269e+02
-2.123461e+02
-2.773297e+02
-2.880022e+02
-2.776793e+02
-2.484686e+02
-2.122499e+02
-1.947859e+02
-2.481525e+02
-2.443853e+02
-1.920246e+02
-2.833731e+02
-1.916778e+02
-2.440729e+02
-2.313262e+02
-2.315815e+02
-1.987369e+02
-2.584221e+02
-1.986423e+02
-1.831271e+02
-2.581468e+02
-2.680407e+02
-1.828228e+02
-1.691140e+02
-2.120193e+02
-2.453253e+02
-2.122145e+02
-1.688429e+02
-1.868820e+02
-1.509257e+02
-1.625539e+02
-2.075560e+02
-2.155417e+02
-2.076917e+02
-1.624621e+02
-1.506916e+02
-1.870156e+02
-1.299306e+02
-1.585443e+02
-1.822233e+02
-1.586119e+02
-1.297436e+02
-1.473451e+02
-1.287294e+02
-1.072486e+02
-1.142374e+02
-1.286979e+02
-1.417597e+02
-1.418028e+02
-1.141587e+02
-1.070954e+02
-1.127752e+02
-9.909542e+01
-8.433828e+01
-9.909514e+01
-8.423414e+01
-6.246534e+01
-6.557970e+01
-7.204977e+01
-7.853077e+01
-8.166195e+01
-7.854023e+01
-7.204239e+01
-6.554245e+01
-6.240281e+01
-2.015117e-02
-5.005615e-02
3.465886e-03
3.879225e-03
-1.693820e-02
3.738854e-02
4.031351e-02
2.231856e-02
8.378472e-03
-1.690068e+01
-1.839003e+01
-1.690603e+01
-1.839254e+01
-2.050637e+01
-6.280628e+01
-6.579073e+01
-7.199727e+01
-7.823537e+01
-8.127795e+01
-7.826397e+01
-7.201507e+01
-6.579863e+01
-6.280013e+01
-8.472952e+01
-9.900874e+01
-8.471708e+01
-9.904415e+01
-1.122976e+02
-1.076288e+02
-1.144625e+02
-1.285911e+02
-1.413701e+02
-1.414248e+02
-1.144731e+02
-1.075827e+02
-1.468762e+02
-1.286587e+02
-1.302785e+02
-1.584329e+02
-1.818238e+02
-1.585305e+02
-1.301899e+02
-1.869312e+02
-1.511681e+02
-1.626627e+02
-2.073494e+02
-2.153404e+02
-2.074865e+02
-1.626309e+02
-1.509891e+02
-1.867796e+02
-1.692463e+02
-2.119340e+02
-2.453472e+02
-2.121342e+02
-1.689769e+02
-1.831542e+02
-2.582633e+02
-2.682793e+02
-1.827946e+02
-1.986703e+02
-2.585308e+02
-1.985589e+02
-2.312583e+02
-2.315045e+02
-2.440151e+02
-1.919598e+02
-2.837902e+02
-1.915147e+02
-2.443089e+02
-2.481003e+02
-1.950492e+02
-2.121958e+02
-2.776025e+02
-2.884578e+02
-2.779385e+02
-2.483943e+02
-2.120418e+02
-1.945973e+02
-1.725921e+01
-1.676936e+01
-1.679483e+01
-2.056391e+01
-1.728441e+01
-1.972769e+01
-1.973785e+01
-9.188151e+00
-1.971162e-02
-8.569983e+00
-9.209481e+00
-1.025781e+01
-8.581518e+00
-8.490285e+00
-1.026161e+01
-8.531850e+00
-2.914324e-02
-5.444779e+01
-4.787769e+01
-6.143260e+01
-5.442886e+01
-4.786873e+01
-2.484660e+01
-2.487063e+01
-1.387410e-02
3.296595e-02
3.689557e-02
-5.069125e-02
-3.830375e-02
2.766143e-02
-6.061869e-02
2.296787e-02
-9.205888e+00
-2.756030e+01
-2.755644e+01
-2.501407e+01
-2.502238e+01
-4.815808e+01
-6.114972e+01
-5.441861e+01
-4.817015e+01
-5.441847e+01
-2.754203e+01
-2.755138e+01
-9.183937e+00
-3.078290e+01
-3.089130e+01
-1.092222e+02
-9.177484e+01
-1.247958e+02
-9.170112e+01
-9.212428e+01
-1.243490e+02
-1.091595e+02
-9.215255e+01
-1.092344e+02
-1.091481e+02
-3.379656e+01
1.466854e-02
1.233539e-02
-3.915235e-02
-3.391328e+01
-3.242087e+01
-3.654134e+01
-3.951230e+01
-4.112266e+01
-3.949351e+01
-3.651636e+01
-3.381152e+01
-3.245553e+01
2.718233e-02
-2.100646e-02
7.704024e-03
-2.370124e-03
2.997163e-02
-1.177670e-02
-6.051496e-02
-4.622592e-02
9.885913e-03
-1.061268e-02
-5.905916e-02
-1.493752e-02
-3.653498e+01
-3.941304e+01
-3.258931e+01
-3.940932e+01
-4.099434e+01
-3.652132e+01
-3.391703e+01
-3.261170e+01
1.026152e-02
-2.349757e-02
-2.007525e-02
-1.693196e+02
-1.952591e+02
-1.693770e+02
-1.955087e+02
-1.694501e+02
-1.369180e+02
-1.367636e+02
-1.370994e+02
-1.693535e+02
-1.370793e+02
-5.622774e+01
-4.899207e+01
-4.902713e+01
-5.626938e+01
-6.350173e+01
-5.623644e+01
-4.918841e+01
-4.923025e+01
-6.329821e+01
-5.621471e+01
-4.046436e-02
-8.459074e-02
-1.825149e+01
9.234496e+00
1.018701e+01
9.224013e+00
-1.826432e+01
-2.041520e+01
-1.638773e+01
-1.823199e+01
-1.644501e+01
2.011123e-02
3.889141e-02
2.362315e-02
9.236127e+00
8.473665e+00
8.466026e+00
9.225643e+00
-4.174309e-02
-3.024702e-03
1.680853e-03
-4.284988e-02
-4.647197e-02
-1.643754e+01
-1.824933e+01
-1.645085e+01
-2.044599e+01
8.462566e+00
1.023598e+01
8.437677e+00
-1.699773e+02
-2.501037e+02
-2.155222e+02
-1.697295e+02
-2.502715e+02
-2.154195e+02
-2.153320e+02
-1.698604e+02
-1.697307e+02
-2.153586e+02
-7.148051e+01
-7.968378e+01
-7.159475e+01
-7.148430e+01
-6.753465e+01
-6.757692e+01
-6.771132e+01
-7.963787e+01
-7.959243e+01
-6.779666e+01
-7.163046e+01
-9.066161e+01
-7.962489e+01
-8.725711e+01
-8.707642e+01
-9.042037e+01
-8.730575e+01
-8.711259e+01
-2.319042e+02
-2.321512e+02
-2.319740e+02
-2.320485e+02
-1.817003e+02
-1.814025e+02
-1.814428e+02
-2.702541e+02
-1.812573e+02
-2.698881e+02
1.679623e+01
1.732323e+01
1.679402e+01
-7.476292e-02
7.730007e-02
1.083240e-01
9.630622e-02
2.124227e-02
-7.415800e-02
-1.281409e-01
1.840226e+01
1.970712e+01
1.970893e+01
-2.084133e-02
-4.186544e-02
-5.062849e-02
-3.231765e-02
-1.954807e-03
-1.376234e-03
-1.453683e-02
-4.377430e-02
1.732072e+01
2.046294e+01
1.839371e+01
-7.806618e-03
1.392131e-02
-1.047908e-02
-1.046469e+02
-1.197805e+02
-1.046063e+02
-1.046756e+02
-8.686162e+01
-8.691502e+01
-8.699779e+01
-8.712526e+01
-1.195350e+02
-1.047134e+02
-1.487242e+02
-1.432383e+02
-1.433197e+02
-1.292882e+02
-1.432111e+02
-1.430949e+02
-1.050682e+02
-1.128973e+02
-1.051520e+02
-1.292874e+02
-1.051093e+02
-1.129905e+02
-1.052878e+02
-1.128834e+02
-1.129273e+02
-1.485525e+02
-1.291753e+02
-1.292106e+02
2.756494e+01
2.755275e+01
1.625753e+01
1.826586e+01
1.622596e+01
1.827119e+01
1.824232e+01
1.639029e+01
1.824276e+01
1.641672e+01
2.059654e+01
2.486039e+01
2.755045e+01
2.486293e+01
2.490739e+01
2.493400e+01
2.754206e+01
2.035477e+01
3.082761e+01
3.073415e+01
-4.744806e+01
-3.580219e+01
-3.591122e+01
-3.576699e+01
-4.749654e+01
-4.184593e+01
-3.584099e+01
-4.184303e+01
-4.191187e+01
-4.190332e+01
2.688238e-02
2.362118e-03
-1.307791e-01
7.910940e-03
2.169565e-01
-1.989426e-01
2.141065e-02
-1.463604e-02
-4.982621e-02
2.559011e-02
-1.511873e+02
-1.510960e+02
-1.512387e+02
-1.510784e+02
-1.208349e+02
-1.747481e+02
-1.209548e+02
-1.207782e+02
-1.746714e+02
-1.210019e+02
3.654033e+01
3.953413e+01
3.377919e+01
3.387677e+01
3.651623e+01
3.936563e+01
3.954179e+01
4.116925e+01
3.238074e+01
3.652024e+01
3.377467e+01
3.238365e+01
3.251767e+01
3.937200e+01
4.094202e+01
3.650546e+01
3.389867e+01
3.256587e+01
-1.439116e+02
-1.675364e+02
-1.676389e+02
-1.871068e+02
-1.325906e+02
-1.327470e+02
-1.870119e+02
-1.869057e+02
-1.324465e+02
-1.869052e+02
-1.674333e+02
-1.438934e+02
-1.327073e+02
-1.940590e+02
-1.674319e+02
-1.438668e+02
-1.438247e+02
-1.940771e+02
3.147579e-02
8.630065e-03
-1.680996e-01
-1.223395e-01
2.907237e-01
2.336225e-01
-1.716043e-01
-2.437890e-01
6.392520e-02
4.795104e-02
-3.993480e-02
-2.050501e-02
4.802068e-02
6.694201e-02
-5.068301e-02
1.959696e-01
4.899177e-03
-1.445806e-02
-2.065199e+02
-1.395971e+02
-2.064293e+02
-1.397906e+02
-1.393835e+02
-1.396832e+02
-1.776381e+02
-1.777599e+02
-1.776519e+02
-1.779028e+02
5.441785e+01
6.129793e+01
4.795804e+01
5.439269e+01
4.799189e+01
4.805780e+01
6.115024e+01
5.438782e+01
4.811127e+01
5.440402e+01
-5.707861e+01
-8.077892e+01
-5.729916e+01
-5.698364e+01
-5.718888e+01
-7.026028e+01
-7.011091e+01
-8.078086e+01
-7.014955e+01
-7.028881e+01
-1.807514e+02
-1.806267e+02
-1.544523e+02
-2.098194e+02
-1.543752e+02
-1.809026e+02
-1.806464e+02
-1.544460e+02
-2.021607e+02
-2.020435e+02
-1.545117e+02
-1.418791e+02
-1.420787e+02
-2.099227e+02
-1.416569e+02
-2.021062e+02
-1.419578e+02
-2.023507e+02
6.326482e+01
6.363542e+01
5.624996e+01
5.621817e+01
5.621921e+01
4.892064e+01
4.893743e+01
4.916878e+01
4.923768e+01
5.620850e+01
3.453349e-02
-1.842552e-01
6.981308e-03
3.152077e-01
-2.635634e-01
9.603208e-02
-1.331202e-02
-2.758799e-02
9.533396e-02
1.067594e-02
4.191128e+01
3.551759e+01
4.794642e+01
4.188413e+01
3.550820e+01
4.742733e+01
3.588044e+01
3.595177e+01
4.186962e+01
4.187562e+01
6.267856e+01
6.571542e+01
7.198762e+01
7.828964e+01
8.133656e+01
7.826578e+01
7.196856e+01
6.573903e+01
6.272603e+01
-9.222894e+01
-1.071035e+02
-7.245591e+01
-1.070077e+02
-7.280905e+01
-9.232451e+01
-7.250682e+01
-7.289908e+01
-9.208180e+01
-9.195236e+01
6.775193e+01
6.784159e+01
8.707263e+01
8.738515e+01
6.743694e+01
7.966026e+01
7.960478e+01
6.748261e+01
7.162602e+01
7.962423e+01
7.166609e+01
7.961299e+01
8.743245e+01
9.085925e+01
7.139058e+01
7.139260e+01
9.040508e+01
8.709211e+01
-8.575016e-03
6.048586e-03
-9.175974e-02
2.189086e-01
3.431015e-02
-8.084292e-03
-1.228350e-02
-1.281719e-01
-1.309306e-01
-1.913588e-01
1.809689e-01
4.990653e-02
-5.277020e-03
7.849501e-02
5.431319e-02
9.955694e-02
1.403333e-01
-2.430971e-02
8.461010e+01
9.901154e+01
8.465255e+01
9.900143e+01
1.123902e+02
9.189095e+01
1.246613e+02
1.091479e+02
9.192947e+01
1.091642e+02
9.208250e+01
1.243980e+02
9.212757e+01
1.091535e+02
1.091772e+02
-4.438566e-02
3.796518e-02
-8.897958e-02
3.688337e-02
-3.733688e-02
8.813992e-02
3.084830e-03
7.434272e-02
-4.131740e-03
1.318418e-02
8.674974e+01
8.682751e+01
1.046184e+02
1.195264e+02
8.708414e+01
8.718616e+01
1.046676e+02
1.200033e+02
1.047024e+02
1.046560e+02
-7.761824e+01
-1.161525e+02
-9.938296e+01
-7.811073e+01
-7.760959e+01
-1.160040e+02
-9.955691e+01
-7.803062e+01
-9.984917e+01
-9.972655e+01
1.075304e+02
1.144007e+02
1.286093e+02
1.414747e+02
1.414623e+02
1.144142e+02
1.075221e+02
1.469754e+02
1.286340e+02
5.685896e+01
5.700472e+01
5.713265e+01
8.076253e+01
5.734395e+01
7.016880e+01
7.027388e+01
8.115820e+01
7.014739e+01
7.027115e+01
2.324736e-02
5.155875e-02
-7.881742e-02
4.607202e-02
1.418780e-02
-1.854667e-02
3.404303e-02
-7.233433e-02
6.091546e-02
4.308698e-02
-2.915075e-03
-2.146975e-02
-1.956896e-02
-2.940468e-02
-3.424949e-04
-2.490772e-02
2.897403e-02
-7.610878e-02
1.128084e+02
1.292981e+02
1.434440e+02
1.431910e+02
1.292796e+02
1.129836e+02
1.488946e+02
1.049782e+02
1.128376e+02
1.051197e+02
1.485398e+02
1.431325e+02
1.052019e+02
1.130328e+02
1.053276e+02
1.292490e+02
1.291765e+02
1.433227e+02
1.301954e+02
1.584684e+02
1.819065e+02
1.585284e+02
1.301326e+02
-9.006060e-03