# vtk DataFile Version 3.0
Unstructured Grid Example
ASCII
DATASET UNSTRUCTURED_GRID
POINTS 832 float
-1	 0	 0
-1	 0	 3.750000e-01
-1	 0	 7.500000e-01
-1	 0	 1.125000e+00
-1	 0	 1.500000e+00
-1	 0	 1.875000e+00
-1	 0	 2.250000e+00
-1	 0	 2.625000e+00
-1	 0	 3
-9.875000e-01	 0	 0
-9.875000e-01	 0	 1.500000e+00
-9.875000e-01	 0	 3
-9.875000e-01	 0	 2.250000e+00
-9.875000e-01	 0	 7.500000e-01
-9.833054e-01	 -1.819631e-01	 7.500000e-01
-9.833054e-01	 -1.819631e-01	 0
-9.833054e-01	 -1.819631e-01	 1.500000e+00
-9.833054e-01	 -1.819631e-01	 3.000000e+00
-9.833054e-01	 1.819631e-01	 2.250000e+00
-9.833054e-01	 1.819631e-01	 0
-9.833054e-01	 1.819631e-01	 1.500000e+00
-9.833054e-01	 1.819631e-01	 3.000000e+00
-9.833054e-01	 1.819631e-01	 7.500000e-01
-9.833054e-01	 -1.819631e-01	 2.250000e+00
-9.750000e-01	 0	 7.500000e-01
-9.750000e-01	 0	 1.125000e+00
-9.750000e-01	 0	 0
-9.750000e-01	 0	 3.750000e-01
-9.750000e-01	 0	 1.875000e+00
-9.750000e-01	 0	 2.625000e+00
-9.750000e-01	 0	 3
-9.750000e-01	 0	 1.500000e+00
-9.750000e-01	 0	 2.250000e+00
-9.625000e-01	 0	 1.500000e+00
-9.625000e-01	 0	 2.250000e+00
-9.625000e-01	 0	 0
-9.625000e-01	 0	 7.500000e-01
-9.625000e-01	 0	 3
-9.587227e-01	 -1.774140e-01	 0
-9.587227e-01	 -1.774140e-01	 3.000000e+00
-9.587227e-01	 -1.774140e-01	 1.500000e+00
-9.587227e-01	 1.774140e-01	 0
-9.587227e-01	 1.774140e-01	 3.000000e+00
-9.587227e-01	 1.774140e-01	 1.500000e+00
-9.587227e-01	 1.774140e-01	 7.500000e-01
-9.587227e-01	 -1.774140e-01	 7.500000e-01
-9.587227e-01	 -1.774140e-01	 2.250000e+00
-9.587227e-01	 1.774140e-01	 2.250000e+00
-9.500000e-01	 0	 0
-9.500000e-01	 0	 3.750000e-01
-9.500000e-01	 0	 1.125000e+00
-9.500000e-01	 0	 1.500000e+00
-9.500000e-01	 0	 1.875000e+00
-9.500000e-01	 0	 2.250000e+00
-9.500000e-01	 0	 2.625000e+00
-9.500000e-01	 0	 3
-9.500000e-01	 0	 7.500000e-01
-9.341401e-01	 -1.728649e-01	 1.500000e+00
-9.341401e-01	 -1.728649e-01	 0
-9.341401e-01	 -1.728649e-01	 3.000000e+00
-9.341401e-01	 1.728649e-01	 2.250000e+00
-9.341401e-01	 1.728649e-01	 0
-9.341401e-01	 1.728649e-01	 1.500000e+00
-9.341401e-01	 1.728649e-01	 3.000000e+00
-9.341401e-01	 -1.728649e-01	 7.500000e-01
-9.341401e-01	 -1.728649e-01	 2.250000e+00
-9.341401e-01	 1.728649e-01	 7.500000e-01
-9.297883e-01	 -3.680947e-01	 1.125000e+00
-9.297883e-01	 -3.680947e-01	 0
-9.297883e-01	 -3.680947e-01	 7.500000e-01
-9.297883e-01	 -3.680947e-01	 1.500000e+00
-9.297883e-01	 -3.680947e-01	 1.875000e+00
-9.297883e-01	 -3.680947e-01	 2.250000e+00
-9.297883e-01	 -3.680947e-01	 2.625000e+00
-9.297883e-01	 -3.680947e-01	 3.000000e+00
-9.297883e-01	 -3.680947e-01	 3.750000e-01
-9.297883e-01	 3.680947e-01	 3.750000e-01
-9.297883e-01	 3.680947e-01	 2.250000e+00
-9.297883e-01	 3.680947e-01	 2.625000e+00
-9.297883e-01	 3.680947e-01	 0
-9.297883e-01	 3.680947e-01	 7.500000e-01
-9.297883e-01	 3.680947e-01	 1.500000e+00
-9.297883e-01	 3.680947e-01	 1.875000e+00
-9.297883e-01	 3.680947e-01	 3.000000e+00
-9.297883e-01	 3.680947e-01	 1.125000e+00
-9.181659e-01	 3.634935e-01	 7.500000e-01
-9.181659e-01	 -3.634935e-01	 0
-9.181659e-01	 -3.634935e-01	 7.500000e-01
-9.181659e-01	 -3.634935e-01	 2.250000e+00
-9.181659e-01	 -3.634935e-01	 3
-9.181659e-01	 3.634935e-01	 0
-9.181659e-01	 3.634935e-01	 2.250000e+00
-9.181659e-01	 3.634935e-01	 3
-9.181659e-01	 -3.634935e-01	 1.500000e+00
-9.181659e-01	 3.634935e-01	 1.500000e+00
-9.065436e-01	 -3.588923e-01	 1.125000e+00
-9.065436e-01	 -3.588923e-01	 2.625000e+00
-9.065436e-01	 -3.588923e-01	 0
-9.065436e-01	 -3.588923e-01	 3.750000e-01
-9.065436e-01	 -3.588923e-01	 1.500000e+00
-9.065436e-01	 -3.588923e-01	 3
-9.065436e-01	 3.588923e-01	 2.625000e+00
-9.065436e-01	 3.588923e-01	 1.125000e+00
-9.065436e-01	 3.588923e-01	 0
-9.065436e-01	 3.588923e-01	 3.750000e-01
-9.065436e-01	 3.588923e-01	 3
-9.065436e-01	 -3.588923e-01	 7.500000e-01
-9.065436e-01	 -3.588923e-01	 1.875000e+00
-9.065436e-01	 3.588923e-01	 1.875000e+00
-9.065436e-01	 3.588923e-01	 1.500000e+00
-9.065436e-01	 -3.588923e-01	 2.250000e+00
-9.065436e-01	 3.588923e-01	 7.500000e-01
-9.065436e-01	 3.588923e-01	 2.250000e+00
-8.949212e-01	 3.542912e-01	 1.500000e+00
-8.949212e-01	 -3.542912e-01	 1.500000e+00
-8.949212e-01	 -3.542912e-01	 0
-8.949212e-01	 -3.542912e-01	 3.000000e+00
-8.949212e-01	 3.542912e-01	 0
-8.949212e-01	 3.542912e-01	 3.000000e+00
-8.949212e-01	 -3.542912e-01	 2.250000e+00
-8.949212e-01	 -3.542912e-01	 7.500000e-01
-8.949212e-01	 3.542912e-01	 2.250000e+00
-8.949212e-01	 3.542912e-01	 7.500000e-01
-8.832989e-01	 -3.496900e-01	 1.125000e+00
-8.832989e-01	 -3.496900e-01	 1.875000e+00
-8.832989e-01	 -3.496900e-01	 2.625000e+00
-8.832989e-01	 -3.496900e-01	 2.250000e+00
-8.832989e-01	 3.496900e-01	 1.125000e+00
-8.832989e-01	 -3.496900e-01	 0
-8.832989e-01	 -3.496900e-01	 3.000000e+00
-8.832989e-01	 -3.496900e-01	 3.750000e-01
-8.832989e-01	 -3.496900e-01	 7.500000e-01
-8.832989e-01	 3.496900e-01	 3.750000e-01
-8.832989e-01	 3.496900e-01	 7.500000e-01
-8.832989e-01	 3.496900e-01	 2.250000e+00
-8.832989e-01	 3.496900e-01	 2.625000e+00
-8.832989e-01	 3.496900e-01	 0
-8.832989e-01	 3.496900e-01	 1.875000e+00
-8.832989e-01	 3.496900e-01	 3.000000e+00
-8.832989e-01	 -3.496900e-01	 1.500000e+00
-8.832989e-01	 3.496900e-01	 1.500000e+00
-8.369955e-01	 -5.472098e-01	 0
-8.369955e-01	 -5.472098e-01	 7.500000e-01
-8.369955e-01	 -5.472098e-01	 1.500000e+00
-8.369955e-01	 -5.472098e-01	 2.250000e+00
-8.369955e-01	 -5.472098e-01	 3
-8.369955e-01	 5.472098e-01	 0
-8.369955e-01	 5.472098e-01	 7.500000e-01
-8.369955e-01	 5.472098e-01	 1.500000e+00
-8.369955e-01	 5.472098e-01	 2.250000e+00
-8.369955e-01	 5.472098e-01	 3
-8.160706e-01	 -5.335295e-01	 7.500000e-01
-8.160706e-01	 5.335295e-01	 7.500000e-01
-8.160706e-01	 -5.335295e-01	 1.500000e+00
-8.160706e-01	 -5.335295e-01	 2.250000e+00
-8.160706e-01	 5.335295e-01	 1.500000e+00
-8.160706e-01	 5.335295e-01	 2.250000e+00
-8.160706e-01	 -5.335295e-01	 0
-8.160706e-01	 -5.335295e-01	 3.000000e+00
-8.160706e-01	 5.335295e-01	 0
-8.160706e-01	 5.335295e-01	 3.000000e+00
-7.951457e-01	 -5.198493e-01	 7.500000e-01
-7.951457e-01	 5.198493e-01	 7.500000e-01
-7.951457e-01	 -5.198493e-01	 0
-7.951457e-01	 -5.198493e-01	 1.500000e+00
-7.951457e-01	 -5.198493e-01	 2.250000e+00
-7.951457e-01	 -5.198493e-01	 3
-7.951457e-01	 5.198493e-01	 0
-7.951457e-01	 5.198493e-01	 1.500000e+00
-7.951457e-01	 5.198493e-01	 2.250000e+00
-7.951457e-01	 5.198493e-01	 3
-7.071068e-01	 -7.071068e-01	 0
-7.071068e-01	 -7.071068e-01	 3.750000e-01
-7.071068e-01	 -7.071068e-01	 7.500000e-01
-7.071068e-01	 -7.071068e-01	 1.125000e+00
-7.071068e-01	 -7.071068e-01	 1.500000e+00
-7.071068e-01	 -7.071068e-01	 1.875000e+00
-7.071068e-01	 -7.071068e-01	 2.250000e+00
-7.071068e-01	 -7.071068e-01	 2.625000e+00
-7.071068e-01	 -7.071068e-01	 3.000000e+00
-7.071068e-01	 7.071068e-01	 0
-7.071068e-01	 7.071068e-01	 3.750000e-01
-7.071068e-01	 7.071068e-01	 7.500000e-01
-7.071068e-01	 7.071068e-01	 1.125000e+00
-7.071068e-01	 7.071068e-01	 1.500000e+00
-7.071068e-01	 7.071068e-01	 1.875000e+00
-7.071068e-01	 7.071068e-01	 2.250000e+00
-7.071068e-01	 7.071068e-01	 2.625000e+00
-7.071068e-01	 7.071068e-01	 3.000000e+00
-6.982679e-01	 -6.982679e-01	 7.500000e-01
-6.982679e-01	 6.982679e-01	 7.500000e-01
-6.982679e-01	 -6.982679e-01	 0
-6.982679e-01	 -6.982679e-01	 2.250000e+00
-6.982679e-01	 -6.982679e-01	 3.000000e+00
-6.982679e-01	 6.982679e-01	 0
-6.982679e-01	 6.982679e-01	 2.250000e+00
-6.982679e-01	 6.982679e-01	 3.000000e+00
-6.982679e-01	 -6.982679e-01	 1.500000e+00
-6.982679e-01	 6.982679e-01	 1.500000e+00
-6.894291e-01	 -6.894291e-01	 3.750000e-01
-6.894291e-01	 -6.894291e-01	 2.625000e+00
-6.894291e-01	 -6.894291e-01	 0
-6.894291e-01	 -6.894291e-01	 1.500000e+00
-6.894291e-01	 -6.894291e-01	 2.250000e+00
-6.894291e-01	 -6.894291e-01	 3.000000e+00
-6.894291e-01	 6.894291e-01	 3.750000e-01
-6.894291e-01	 6.894291e-01	 2.625000e+00
-6.894291e-01	 -6.894291e-01	 1.875000e+00
-6.894291e-01	 6.894291e-01	 1.875000e+00
-6.894291e-01	 -6.894291e-01	 7.500000e-01
-6.894291e-01	 -6.894291e-01	 1.125000e+00
-6.894291e-01	 6.894291e-01	 0
-6.894291e-01	 6.894291e-01	 1.500000e+00
-6.894291e-01	 6.894291e-01	 2.250000e+00
-6.894291e-01	 6.894291e-01	 3.000000e+00
-6.894291e-01	 6.894291e-01	 7.500000e-01
-6.894291e-01	 6.894291e-01	 1.125000e+00
-6.805903e-01	 6.805903e-01	 7.500000e-01
-6.805903e-01	 -6.805903e-01	 7.500000e-01
-6.805903e-01	 -6.805903e-01	 0
-6.805903e-01	 -6.805903e-01	 1.500000e+00
-6.805903e-01	 -6.805903e-01	 3.000000e+00
-6.805903e-01	 6.805903e-01	 0
-6.805903e-01	 6.805903e-01	 1.500000e+00
-6.805903e-01	 6.805903e-01	 3.000000e+00
-6.805903e-01	 6.805903e-01	 2.250000e+00
-6.805903e-01	 -6.805903e-01	 2.250000e+00
-6.717514e-01	 -6.717514e-01	 2.625000e+00
-6.717514e-01	 6.717514e-01	 2.625000e+00
-6.717514e-01	 -6.717514e-01	 0
-6.717514e-01	 -6.717514e-01	 3.750000e-01
-6.717514e-01	 -6.717514e-01	 7.500000e-01
-6.717514e-01	 -6.717514e-01	 1.125000e+00
-6.717514e-01	 -6.717514e-01	 1.875000e+00
-6.717514e-01	 -6.717514e-01	 3.000000e+00
-6.717514e-01	 -6.717514e-01	 2.250000e+00
-6.717514e-01	 6.717514e-01	 1.500000e+00
-6.717514e-01	 6.717514e-01	 0
-6.717514e-01	 6.717514e-01	 3.750000e-01
-6.717514e-01	 6.717514e-01	 7.500000e-01
-6.717514e-01	 6.717514e-01	 1.125000e+00
-6.717514e-01	 6.717514e-01	 1.875000e+00
-6.717514e-01	 6.717514e-01	 3.000000e+00
-6.717514e-01	 -6.717514e-01	 1.500000e+00
-6.717514e-01	 6.717514e-01	 2.250000e+00
-5.472098e-01	 -8.369955e-01	 0
-5.472098e-01	 -8.369955e-01	 7.500000e-01
-5.472098e-01	 -8.369955e-01	 1.500000e+00
-5.472098e-01	 -8.369955e-01	 2.250000e+00
-5.472098e-01	 -8.369955e-01	 3
-5.472098e-01	 8.369955e-01	 0
-5.472098e-01	 8.369955e-01	 7.500000e-01
-5.472098e-01	 8.369955e-01	 1.500000e+00
-5.472098e-01	 8.369955e-01	 2.250000e+00
-5.472098e-01	 8.369955e-01	 3
-5.335295e-01	 -8.160706e-01	 1.500000e+00
-5.335295e-01	 -8.160706e-01	 2.250000e+00
-5.335295e-01	 8.160706e-01	 0
-5.335295e-01	 8.160706e-01	 3.000000e+00
[...]
POINT_DATA 832
VECTORS displacement float
0	 0	 2.007676e-02
-1.054202e-11	 9.110590e-12	 2.007676e-02
-1.749768e-11	 1.580642e-11	 2.007676e-02
-1.868310e-11	 1.885953e-11	 2.007676e-02
-1.555302e-11	 1.869902e-11	 2.007676e-02
-1.336479e-11	 1.580984e-11	 2.007676e-02
-1.090509e-11	 1.134142e-11	 2.007676e-02
-6.101956e-12	 5.923673e-12	 2.007676e-02
0	 0	 2.007676e-02
0	 0	 2.007676e-02
-1.557163e-11	 1.918261e-11	 2.007676e-02
0	 0	 2.007676e-02
-1.092470e-11	 1.155600e-11	 2.007676e-02
-1.754669e-11	 1.649756e-11	 2.007676e-02
-5.788275e-12	 1.633489e-11	 2.007676e-02
0	 0	 2.007676e-02
-7.073612e-12	 1.924402e-11	 2.007676e-02
0	 0	 2.007676e-02
-1.340041e-11	 1.145755e-11	 2.007676e-02
0	 0	 2.007676e-02
-2.216938e-11	 1.922254e-11	 2.007676e-02
0	 0	 2.007676e-02
-2.532365e-11	 1.685594e-11	 2.007676e-02
-6.353623e-12	 1.169245e-11	 2.007676e-02
-1.758021e-11	 1.718588e-11	 2.007676e-02
-1.873935e-11	 2.018988e-11	 2.007676e-02
0	 0	 2.007676e-02
-1.056994e-11	 1.006011e-11	 2.007676e-02
-1.339781e-11	 1.649976e-11	 2.007676e-02
-6.110599e-12	 6.116955e-12	 2.007676e-02
0	 0	 2.007676e-02
-1.558747e-11	 1.967151e-11	 2.007676e-02
-1.093715e-11	 1.177192e-11	 2.007676e-02
-1.560214e-11	 2.015418e-11	 2.007676e-02
-1.094506e-11	 1.198781e-11	 2.007676e-02
0	 0	 2.007676e-02
-1.760843e-11	 1.786937e-11	 2.007676e-02
0	 0	 2.007676e-02
0	 0	 2.007676e-02
0	 0	 2.007676e-02
-7.331043e-12	 2.063457e-11	 2.007676e-02
0	 0	 2.007676e-02
0	 0	 2.007676e-02
-2.205520e-11	 2.002881e-11	 2.007676e-02
-2.524808e-11	 1.755819e-11	 2.007676e-02
-6.134452e-12	 1.817788e-11	 2.007676e-02
-6.508227e-12	 1.249067e-11	 2.007676e-02
-1.337434e-11	 1.173102e-11	 2.007676e-02
0	 0	 2.007676e-02
-1.056860e-11	 1.100580e-11	 2.007676e-02
-1.875982e-11	 2.151913e-11	 2.007676e-02
-1.561243e-11	 2.063760e-11	 2.007676e-02
-1.341812e-11	 1.719148e-11	 2.007676e-02
-1.094594e-11	 1.220218e-11	 2.007676e-02
-6.105715e-12	 6.314576e-12	 2.007676e-02
0	 0	 2.007676e-02
-1.761900e-11	 1.855471e-11	 2.007676e-02
-7.557294e-12	 2.203558e-11	 2.007676e-02
0	 0	 2.007676e-02
0	 0	 2.007676e-02
-1.333596e-11	 1.200038e-11	 2.007676e-02
0	 0	 2.007676e-02
-2.193103e-11	 2.083720e-11	 2.007676e-02
0	 0	 2.007676e-02
-6.453420e-12	 2.004208e-11	 2.007676e-02
-6.638241e-12	 1.329582e-11	 2.007676e-02
-2.511491e-11	 1.825297e-11	 2.007676e-02
8.700442e-12	 2.366150e-11	 2.007676e-02
0	 0	 2.007676e-02
9.635684e-12	 2.074058e-11	 2.007676e-02
5.520360e-12	 2.246830e-11	 2.007676e-02
2.711024e-12	 1.881732e-11	 2.007676e-02
1.047992e-12	 1.373878e-11	 2.007676e-02
1.276877e-13	 7.327511e-12	 2.007676e-02
0	 0	 2.007676e-02
7.258160e-12	 1.265533e-11	 2.007676e-02
-1.748148e-11	 1.071657e-11	 2.007676e-02
-1.503047e-11	 1.180792e-11	 2.007676e-02
-7.589088e-12	 5.892402e-12	 2.007676e-02
0	 0	 2.007676e-02
-2.766679e-11	 1.804895e-11	 2.007676e-02
-2.746521e-11	 2.071005e-11	 2.007676e-02
-2.169219e-11	 1.697031e-11	 2.007676e-02
0	 0	 2.007676e-02
-3.086050e-11	 2.155682e-11	 2.007676e-02
-2.771590e-11	 1.809767e-11	 2.007676e-02
0	 0	 2.007676e-02
9.260406e-12	 2.179830e-11	 2.007676e-02
8.406426e-13	 1.427130e-11	 2.007676e-02
0	 0	 2.007676e-02
0	 0	 2.007676e-02
-1.502015e-11	 1.188385e-11	 2.007676e-02
0	 0	 2.007676e-02
5.173429e-12	 2.337370e-11	 2.007676e-02
-2.739995e-11	 2.099314e-11	 2.007676e-02
7.885188e-12	 2.585842e-11	 2.007676e-02
-9.138548e-14	 7.908651e-12	 2.007676e-02
0	 0	 2.007676e-02
6.793606e-12	 1.394278e-11	 2.007676e-02
4.831425e-12	 2.427718e-11	 2.007676e-02
0	 0	 2.007676e-02
-7.593771e-12	 5.928693e-12	 2.007676e-02
-3.082593e-11	 2.190942e-11	 2.007676e-02
0	 0	 2.007676e-02
-1.753086e-11	 1.073502e-11	 2.007676e-02
0	 0	 2.007676e-02
8.880148e-12	 2.285052e-11	 2.007676e-02
2.170152e-12	 2.023085e-11	 2.007676e-02
-2.159566e-11	 1.736613e-11	 2.007676e-02
-2.733062e-11	 2.127082e-11	 2.007676e-02
6.352842e-13	 1.480244e-11	 2.007676e-02
-2.775115e-11	 1.814307e-11	 2.007676e-02
-1.500917e-11	 1.195876e-11	 2.007676e-02
-2.725421e-11	 2.154903e-11	 2.007676e-02
4.488772e-12	 2.517632e-11	 2.007676e-02
0	 0	 2.007676e-02
0	 0	 2.007676e-02
0	 0	 2.007676e-02
0	 0	 2.007676e-02
4.297909e-13	 1.533125e-11	 2.007676e-02
8.500609e-12	 2.389465e-11	 2.007676e-02
-1.499503e-11	 1.203516e-11	 2.007676e-02
-2.778088e-11	 1.818980e-11	 2.007676e-02
7.063869e-12	 2.804064e-11	 2.007676e-02
1.639848e-12	 2.163817e-11	 2.007676e-02
-3.055893e-13	 8.487246e-12	 2.007676e-02
2.257008e-13	 1.586237e-11	 2.007676e-02
-3.075239e-11	 2.224746e-11	 2.007676e-02
0	 0	 2.007676e-02
0	 0	 2.007676e-02
6.309207e-12	 1.521636e-11	 2.007676e-02
8.111421e-12	 2.494427e-11	 2.007676e-02
-1.754411e-11	 1.074268e-11	 2.007676e-02
-2.779666e-11	 1.822730e-11	 2.007676e-02
-1.497963e-11	 1.210920e-11	 2.007676e-02
-7.596209e-12	 5.963043e-12	 2.007676e-02
0	 0	 2.007676e-02
-2.148517e-11	 1.775637e-11	 2.007676e-02
0	 0	 2.007676e-02
4.149821e-12	 2.608240e-11	 2.007676e-02
-2.716983e-11	 2.182653e-11	 2.007676e-02
0	 0	 2.007676e-02
2.302796e-11	 2.830487e-11	 2.007676e-02
1.825283e-11	 2.916394e-11	 2.007676e-02
8.376844e-12	 1.788557e-11	 2.007676e-02
0	 0	 2.007676e-02
0	 0	 2.007676e-02
-2.670203e-11	 1.787056e-11	 2.007676e-02
-2.980426e-11	 2.204110e-11	 2.007676e-02
-1.585741e-11	 1.205316e-11	 2.007676e-02
0	 0	 2.007676e-02
2.228680e-11	 2.957087e-11	 2.007676e-02
-2.693157e-11	 1.763679e-11	 2.007676e-02
1.742887e-11	 3.050986e-11	 2.007676e-02
7.885612e-12	 1.869817e-11	 2.007676e-02
-2.980549e-11	 2.217402e-11	 2.007676e-02
-1.583988e-11	 1.214432e-11	 2.007676e-02
0	 0	 2.007676e-02
0	 0	 2.007676e-02
0	 0	 2.007676e-02
0	 0	 2.007676e-02
2.148428e-11	 3.081048e-11	 2.007676e-02
-2.714220e-11	 1.738665e-11	 2.007676e-02
0	 0	 2.007676e-02
1.657402e-11	 3.184967e-11	 2.007676e-02
7.380112e-12	 1.950922e-11	 2.007676e-02
0	 0	 2.007676e-02
0	 0	 2.007676e-02
-2.977740e-11	 2.228820e-11	 2.007676e-02
-1.581861e-11	 1.223432e-11	 2.007676e-02
0	 0	 2.007676e-02
0	 0	 2.007676e-02
1.796867e-11	 2.086454e-11	 2.007676e-02
2.840877e-11	 3.394882e-11	 2.007676e-02
3.104618e-11	 3.909827e-11	 2.007676e-02
2.641585e-11	 3.637565e-11	 2.007676e-02
1.979690e-11	 3.017647e-11	 2.007676e-02
1.367662e-11	 2.264102e-11	 2.007676e-02
7.233893e-12	 1.252689e-11	 2.007676e-02
0	 0	 2.007676e-02
0	 0	 2.007676e-02
-1.368073e-11	 8.500578e-12	 2.007676e-02
-2.377511e-11	 1.555613e-11	 2.007676e-02
-2.935844e-11	 2.079033e-11	 2.007676e-02
-2.889044e-11	 2.152685e-11	 2.007676e-02
-2.386038e-11	 1.798767e-11	 2.007676e-02
-1.641831e-11	 1.237325e-11	 2.007676e-02
-8.052276e-12	 5.970042e-12	 2.007676e-02
0	 0	 2.007676e-02
2.829300e-11	 3.422116e-11	 2.007676e-02
-2.399354e-11	 1.539554e-11	 2.007676e-02
0	 0	 2.007676e-02
1.344773e-11	 2.291497e-11	 2.007676e-02
0	 0	 2.007676e-02
0	 0	 2.007676e-02
-1.642193e-11	 1.240133e-11	 2.007676e-02
0	 0	 2.007676e-02
2.609860e-11	 3.678925e-11	 2.007676e-02
-2.904844e-11	 2.144201e-11	 2.007676e-02
1.787254e-11	 2.108910e-11	 2.007676e-02
6.952013e-12	 1.286002e-11	 2.007676e-02
0	 0	 2.007676e-02
2.577103e-11	 3.719191e-11	 2.007676e-02
1.321430e-11	 2.318755e-11	 2.007676e-02
0	 0	 2.007676e-02
-1.400644e-11	 8.237215e-12	 2.007676e-02
-8.040340e-12	 6.016130e-12	 2.007676e-02
1.918096e-11	 3.091975e-11	 2.007676e-02
-2.397897e-11	 1.796444e-11	 2.007676e-02
2.816041e-11	 3.447036e-11	 2.007676e-02
3.056111e-11	 3.978512e-11	 2.007676e-02
0	 0	 2.007676e-02
-2.919925e-11	 2.135558e-11	 2.007676e-02
-1.642283e-11	 1.243133e-11	 2.007676e-02
0	 0	 2.007676e-02
-2.420630e-11	 1.523564e-11	 2.007676e-02
-2.976578e-11	 2.051633e-11	 2.007676e-02
-2.441818e-11	 1.507548e-11	 2.007676e-02
2.802476e-11	 3.471636e-11	 2.007676e-02
0	 0	 2.007676e-02
2.544262e-11	 3.758683e-11	 2.007676e-02
0	 0	 2.007676e-02
0	 0	 2.007676e-02
-2.934684e-11	 2.126348e-11	 2.007676e-02
0	 0	 2.007676e-02
-1.642247e-11	 1.245859e-11	 2.007676e-02
1.298024e-11	 2.345387e-11	 2.007676e-02
6.662215e-12	 1.318349e-11	 2.007676e-02
-8.029915e-12	 6.063717e-12	 2.007676e-02
0	 0	 2.007676e-02
1.773797e-11	 2.127327e-11	 2.007676e-02
2.786545e-11	 3.494050e-11	 2.007676e-02
3.002705e-11	 4.041748e-11	 2.007676e-02
1.855118e-11	 3.164348e-11	 2.007676e-02
0	 0	 2.007676e-02
1.274066e-11	 2.371772e-11	 2.007676e-02
-2.948925e-11	 2.116522e-11	 2.007676e-02
0	 0	 2.007676e-02
-1.432610e-11	 7.967830e-12	 2.007676e-02
-2.462891e-11	 1.491273e-11	 2.007676e-02
-3.015283e-11	 2.022658e-11	 2.007676e-02
-2.408587e-11	 1.793157e-11	 2.007676e-02
0	 0	 2.007676e-02
2.510021e-11	 3.797097e-11	 2.007676e-02
-1.642250e-11	 1.248486e-11	 2.007676e-02
0	 0	 2.007676e-02
2.714808e-11	 3.455994e-11	 2.007676e-02
2.830474e-11	 4.002688e-11	 2.007676e-02
1.609341e-11	 2.610023e-11	 2.007676e-02
0	 0	 2.007676e-02
0	 0	 2.007676e-02
-2.121187e-11	 1.248038e-11	 2.007676e-02
-2.707264e-11	 1.902694e-11	 2.007676e-02
-1.658692e-11	 1.231471e-11	 2.007676e-02
0	 0	 2.007676e-02
2.841473e-11	 4.005901e-11	 2.007676e-02
1.582824e-11	 2.634835e-11	 2.007676e-02
0	 0	 2.007676e-02
0	 0	 2.007676e-02
-2.744623e-11	 1.885426e-11	 2.007676e-02
-1.660046e-11	 1.235364e-11	 2.007676e-02
2.784633e-11	 3.420594e-11	 2.007676e-02
0	 0	 2.007676e-02
0	 0	 2.007676e-02
-2.161331e-11	 1.227060e-11	 2.007676e-02
-2.201828e-11	 1.205972e-11	 2.007676e-02
2.850096e-11	 3.376718e-11	 2.007676e-02
0	 0	 2.007676e-02
2.848554e-11	 4.002814e-11	 2.007676e-02
1.554755e-11	 2.657869e-11	 2.007676e-02
0	 0	 2.007676e-02
0	 0	 2.007676e-02
-2.781550e-11	 1.867462e-11	 2.007676e-02
-1.661225e-11	 1.239083e-11	 2.007676e-02
0	 0	 2.007676e-02
2.533252e-11	 3.239805e-11	 2.007676e-02
-2.484426e-11	 1.401209e-11	 2.007676e-02
0	 0	 2.007676e-02
2.098826e-11	 2.454509e-11	 2.007676e-02
2.508271e-11	 3.583065e-11	 2.007676e-02
2.180558e-11	 3.441653e-11	 2.007676e-02
0	 0	 2.007676e-02
0	 0	 2.007676e-02
-1.962454e-11	 9.430304e-12	 2.007676e-02
-2.564865e-11	 1.592149e-11	 2.007676e-02
-2.271277e-11	 1.578011e-11	 2.007676e-02
-1.663923e-11	 1.233320e-11	 2.007676e-02
-8.771717e-12	 6.819966e-12	 2.007676e-02
0	 0	 2.007676e-02
1.216528e-11	 1.367203e-11	 2.007676e-02
1.623072e-11	 2.751435e-11	 2.007676e-02
8.882629e-12	 1.605093e-11	 2.007676e-02
-1.049632e-11	 3.875898e-12	 2.007676e-02
2.566966e-11	 3.567378e-11	 2.007676e-02
-2.584797e-11	 1.589249e-11	 2.007676e-02
2.196271e-11	 2.421852e-11	 2.007676e-02
0	 0	 2.007676e-02
1.625862e-11	 2.756291e-11	 2.007676e-02
0	 0	 2.007676e-02
0	 0	 2.007676e-02
-1.983434e-11	 9.373213e-12	 2.007676e-02
-1.665476e-11	 1.236018e-11	 2.007676e-02
0	 0	 2.007676e-02
1.628605e-11	 2.760160e-11	 2.007676e-02
-1.667284e-11	 1.238323e-11	 2.007676e-02
-2.535740e-11	 1.387931e-11	 2.007676e-02
-8.704857e-12	 6.875296e-12	 2.007676e-02
0	 0	 2.007676e-02
1.340636e-11	 1.323429e-11	 2.007676e-02
0	 0	 2.007676e-02
2.624663e-11	 3.550536e-11	 2.007676e-02
0	 0	 2.007676e-02
-1.078438e-11	 3.785537e-12	 2.007676e-02
-2.604965e-11	 1.585656e-11	 2.007676e-02
0	 0	 2.007676e-02
2.711684e-11	 3.180405e-11	 2.007676e-02
2.225657e-11	 3.436325e-11	 2.007676e-02
2.292399e-11	 2.388517e-11	 2.007676e-02
-2.004902e-11	 9.310273e-12	 2.007676e-02
-2.289650e-11	 1.578438e-11	 2.007676e-02
8.881804e-12	 1.610868e-11	 2.007676e-02
2.681745e-11	 3.533075e-11	 2.007676e-02
1.631270e-11	 2.763614e-11	 2.007676e-02
-1.669282e-11	 1.240095e-11	 2.007676e-02
0	 0	 2.007676e-02
0	 0	 2.007676e-02
-2.625084e-11	 1.581914e-11	 2.007676e-02
0	 0	 2.007676e-02
0	 0	 2.007676e-02
2.387862e-11	 2.354809e-11	 2.007676e-02
-2.025957e-11	 9.243744e-12	 2.007676e-02
2.887552e-11	 3.116971e-11	 2.007676e-02
0	 0	 2.007676e-02
2.268835e-11	 3.427575e-11	 2.007676e-02
0	 0	 2.007676e-02
2.738764e-11	 3.514080e-11	 2.007676e-02
0	 0	 2.007676e-02
0	 0	 2.007676e-02
-2.586522e-11	 1.372594e-11	 2.007676e-02
-2.307465e-11	 1.576815e-11	 2.007676e-02
-8.636983e-12	 6.923436e-12	 2.007676e-02
1.463226e-11	 1.277598e-11	 2.007676e-02
2.483574e-11	 2.319653e-11	 2.007676e-02
1.633367e-11	 2.766294e-11	 2.007676e-02
8.873805e-12	 1.614438e-11	 2.007676e-02
-2.644839e-11	 1.577590e-11	 2.007676e-02
-1.107146e-11	 3.695465e-12	 2.007676e-02
-1.670714e-11	 1.241840e-11	 2.007676e-02
-2.046681e-11	 9.174565e-12	 2.007676e-02
1.675064e-11	 9.926068e-12	 2.007676e-02
-1.752192e-11	 4.496225e-12	 2.007676e-02
0	 0	 2.007676e-02
2.218846e-11	 2.622994e-11	 2.007676e-02
0	 0	 2.007676e-02
0	 0	 2.007676e-02
-2.383157e-11	 1.131349e-11	 2.007676e-02
0	 0	 2.007676e-02
1.535656e-11	 2.604870e-11	 2.007676e-02
-1.594698e-11	 1.101182e-11	 2.007676e-02
1.853771e-11	 9.613221e-12	 2.007676e-02
0	 0	 2.007676e-02
0	 0	 2.007676e-02
-1.845896e-11	 4.335351e-12	 2.007676e-02
-1.636270e-11	 1.096118e-11	 2.007676e-02
0	 0	 2.007676e-02
0	 0	 2.007676e-02
1.582351e-11	 2.602653e-11	 2.007676e-02
-2.481952e-11	 1.115416e-11	 2.007676e-02
2.352531e-11	 2.604168e-11	 2.007676e-02
-2.580504e-11	 1.094638e-11	 2.007676e-02
0	 0	 2.007676e-02
2.486883e-11	 2.584387e-11	 2.007676e-02
0	 0	 2.007676e-02
0	 0	 2.007676e-02
0	 0	 2.007676e-02
1.628348e-11	 2.596426e-11	 2.007676e-02
2.034690e-11	 9.325953e-12	 2.007676e-02
-1.939403e-11	 4.133890e-12	 2.007676e-02
-1.677083e-11	 1.087520e-11	 2.007676e-02
0	 0	 2.007676e-02
9.070404e-12	 -3.322206e-12	 2.007676e-02
1.637512e-11	 -1.207712e-12	 2.007676e-02
2.050018e-11	 5.811288e-12	 2.007676e-02
2.131966e-11	 1.634114e-11	 2.007676e-02
1.902011e-11	 2.310165e-11	 2.007676e-02
1.443945e-11	 2.069895e-11	 2.007676e-02
7.856083e-12	 1.221331e-11	 2.007676e-02
0	 0	 2.007676e-02
0	 0	 2.007676e-02
2.197708e-11	 1.636366e-11	 2.007676e-02
0	 0	 2.007676e-02
1.490993e-11	 2.074641e-11	 2.007676e-02
1.702871e-11	 -1.245960e-12	 2.007676e-02
1.768354e-11	 -1.265927e-12	 2.007676e-02
2.199482e-11	 5.814767e-12	 2.007676e-02
0	 0	 2.007676e-02
9.898979e-12	 -3.343801e-12	 2.007676e-02
2.011773e-11	 2.317062e-11	 2.007676e-02
8.411834e-12	 1.225370e-11	 2.007676e-02
0	 0	 2.007676e-02
2.263729e-11	 1.639008e-11	 2.007676e-02
1.537723e-11	 2.078509e-11	 2.007676e-02
2.329157e-11	 1.641375e-11	 2.007676e-02
1.584287e-11	 2.081932e-11	 2.007676e-02
0	 0	 2.007676e-02
1.833171e-11	 -1.285126e-12	 2.007676e-02
0	 0	 2.007676e-02
0	 0	 2.007676e-02
1.072758e-11	 -3.328246e-12	 2.007676e-02
2.348437e-11	 5.854988e-12	 2.007676e-02
2.394910e-11	 1.644204e-11	 2.007676e-02
2.121529e-11	 2.320909e-11	 2.007676e-02
1.631074e-11	 2.084383e-11	 2.007676e-02
8.965999e-12	 1.227607e-11	 2.007676e-02
0	 0	 2.007676e-02
1.898325e-11	 -1.280956e-12	 2.007676e-02
-1.924190e-11	 -4.490547e-12	 2.007676e-02
0	 0	 2.007676e-02
-1.026695e-11	 -3.815287e-12	 2.007676e-02
-2.474307e-11	 -2.735699e-12	 2.007676e-02
-2.602981e-11	 1.021055e-12	 2.007676e-02
-2.306164e-11	 4.790639e-12	 2.007676e-02
-1.692800e-11	 5.829660e-12	 2.007676e-02
-8.888398e-12	 4.495726e-12	 2.007676e-02
0	 0	 2.007676e-02
0	 0	 2.007676e-02
-1.846569e-11	 -4.469018e-12	 2.007676e-02
0	 0	 2.007676e-02
-2.510535e-11	 1.041072e-12	 2.007676e-02
-1.642331e-11	 5.834253e-12	 2.007676e-02
-2.418734e-11	 1.040911e-12	 2.007676e-02
-1.592005e-11	 5.819536e-12	 2.007676e-02
0	 0	 2.007676e-02
-9.462652e-12	 -3.803902e-12	 2.007676e-02
-2.150364e-11	 4.812657e-12	 2.007676e-02
-8.369459e-12	 4.505362e-12	 2.007676e-02
0	 0	 2.007676e-02
-1.769303e-11	 -4.456397e-12	 2.007676e-02
-2.283719e-11	 -2.701673e-12	 2.007676e-02
-1.691705e-11	 -4.443204e-12	 2.007676e-02
-1.541022e-11	 5.801372e-12	 2.007676e-02
0	 0	 2.007676e-02
-2.325772e-11	 1.038149e-12	 2.007676e-02
0	 0	 2.007676e-02
0	 0	 2.007676e-02
-8.656638e-12	 -3.792609e-12	 2.007676e-02
-1.613853e-11	 -4.437107e-12	 2.007676e-02
-2.092167e-11	 -2.695874e-12	 2.007676e-02
-2.233185e-11	 1.018211e-12	 2.007676e-02
-1.993848e-11	 4.782284e-12	 2.007676e-02
-1.490437e-11	 5.766354e-12	 2.007676e-02
-7.846510e-12	 4.482492e-12	 2.007676e-02
0	 0	 2.007676e-02
1.876097e-11	 -8.250120e-12	 2.007676e-02
1.697249e-11	 1.420228e-11	 2.007676e-02
-2.017216e-11	 -1.567923e-11	 2.007676e-02
-1.844915e-11	 -3.641809e-12	 2.007676e-02
0	 0	 2.007676e-02
0	 0	 2.007676e-02
0	 0	 2.007676e-02
-2.797349e-11	 -1.401268e-11	 2.007676e-02
0	 0	 2.007676e-02
2.424776e-11	 8.361339e-12	 2.007676e-02
-2.555168e-11	 -1.439991e-11	 2.007676e-02
2.322831e-11	 8.151676e-12	 2.007676e-02
-1.671032e-11	 -3.910350e-12	 2.007676e-02
0	 0	 2.007676e-02
0	 0	 2.007676e-02
1.819238e-11	 -8.379286e-12	 2.007676e-02
1.595768e-11	 1.400063e-11	 2.007676e-02
0	 0	 2.007676e-02
0	 0	 2.007676e-02
-1.859630e-11	 -1.594188e-11	 2.007676e-02
1.494965e-11	 1.379240e-11	 2.007676e-02
-1.499240e-11	 -4.220466e-12	 2.007676e-02
0	 0	 2.007676e-02
2.221062e-11	 7.952545e-12	 2.007676e-02
0	 0	 2.007676e-02
0	 0	 2.007676e-02
-2.315197e-11	 -1.481156e-11	 2.007676e-02
0	 0	 2.007676e-02
1.761445e-11	 -8.454167e-12	 2.007676e-02
-1.702778e-11	 -1.618927e-11	 2.007676e-02
1.870142e-11	 -1.015852e-11	 2.007676e-02
1.929850e-11	 6.557914e-12	 2.007676e-02
1.036787e-11	 -7.962236e-12	 2.007676e-02
2.594258e-11	 1.360138e-12	 2.007676e-02
-1.197392e-11	 -1.469744e-11	 2.007676e-02
-2.297389e-11	 -2.643886e-11	 2.007676e-02
-2.321458e-11	 -1.809122e-11	 2.007676e-02
-1.238530e-11	 -8.970363e-12	 2.007676e-02
2.424535e-11	 -6.646972e-12	 2.007676e-02
2.400199e-11	 7.091556e-12	 2.007676e-02
1.075479e-11	 3.573782e-12	 2.007676e-02
0	 0	 2.007676e-02
0	 0	 2.007676e-02
-3.370382e-11	 -3.242358e-11	 2.007676e-02
0	 0	 2.007676e-02
-3.083889e-11	 -2.696555e-11	 2.007676e-02
0	 0	 2.007676e-02
-3.092891e-11	 -3.295432e-11	 2.007676e-02
1.867169e-11	 -1.014313e-11	 2.007676e-02
-2.230881e-11	 -2.667605e-11	 2.007676e-02
0	 0	 2.007676e-02
0	 0	 2.007676e-02
2.551877e-11	 1.201873e-12	 2.007676e-02
0	 0	 2.007676e-02
0	 0	 2.007676e-02
1.879953e-11	 6.355896e-12	 2.007676e-02
-2.216430e-11	 -1.848418e-11	 2.007676e-02
-3.243808e-11	 -3.288796e-11	 2.007676e-02
-1.116917e-11	 -9.424955e-12	 2.007676e-02
1.863648e-11	 -1.012166e-11	 2.007676e-02
2.284977e-11	 6.654847e-12	 2.007676e-02
-2.164057e-11	 -2.689578e-11	 2.007676e-02
-2.828474e-11	 -2.790708e-11	 2.007676e-02
-2.891648e-11	 -3.368894e-11	 2.007676e-02
0	 0	 2.007676e-02
1.045285e-11	 -7.913191e-12	 2.007676e-02
2.509545e-11	 1.037891e-12	 2.007676e-02
0	 0	 2.007676e-02
-3.117521e-11	 -3.333462e-11	 2.007676e-02
0	 0	 2.007676e-02
-1.137550e-11	 -1.491046e-11	 2.007676e-02
0	 0	 2.007676e-02
2.384841e-11	 -6.775435e-12	 2.007676e-02
1.016172e-11	 3.331334e-12	 2.007676e-02
1.830336e-11	 6.150903e-12	 2.007676e-02
-2.112040e-11	 -1.887539e-11	 2.007676e-02
0	 0	 2.007676e-02
1.860210e-11	 -1.009912e-11	 2.007676e-02
1.780315e-11	 5.944730e-12	 2.007676e-02
0	 0	 2.007676e-02
0	 0	 2.007676e-02
-2.006547e-11	 -1.926264e-11	 2.007676e-02
0	 0	 2.007676e-02
-2.096504e-11	 -2.711149e-11	 2.007676e-02
2.466974e-11	 8.734142e-13	 2.007676e-02
-2.990016e-11	 -3.377651e-11	 2.007676e-02
1.052907e-11	 -7.843263e-12	 2.007676e-02
-1.076330e-11	 -1.510169e-11	 2.007676e-02
-1.900276e-11	 -1.965183e-11	 2.007676e-02
-9.943026e-12	 -9.876209e-12	 2.007676e-02
0	 0	 2.007676e-02
1.856918e-11	 -1.006640e-11	 2.007676e-02
2.425191e-11	 7.058933e-13	 2.007676e-02
2.170143e-11	 6.193036e-12	 2.007676e-02
1.730776e-11	 5.737027e-12	 2.007676e-02
9.568872e-12	 3.086992e-12	 2.007676e-02
0	 0	 2.007676e-02
0	 0	 2.007676e-02
-2.028031e-11	 -2.731360e-11	 2.007676e-02
-2.861074e-11	 -3.420783e-11	 2.007676e-02
-2.570069e-11	 -2.882197e-11	 2.007676e-02
0	 0	 2.007676e-02
2.344670e-11	 -6.889669e-12	 2.007676e-02
-2.687085e-11	 -3.437200e-11	 2.007676e-02
0	 0	 2.007676e-02
3.002412e-11	 -6.175876e-12	 2.007676e-02
2.358158e-11	 -1.584245e-12	 2.007676e-02
0	 0	 2.007676e-02
0	 0	 2.007676e-02
-3.870342e-11	 -4.646789e-11	 2.007676e-02
-2.836115e-11	 -3.109397e-11	 2.007676e-02
0	 0	 2.007676e-02
-2.455804e-11	 -3.270801e-11	 2.007676e-02
1.924871e-11	 -1.079170e-11	 2.007676e-02
1.910985e-11	 -1.083171e-11	 2.007676e-02
0	 0	 2.007676e-02
0	 0	 2.007676e-02
-2.439843e-11	 -3.282736e-11	 2.007676e-02
2.885142e-11	 -6.869206e-12	 2.007676e-02
2.241742e-11	 -2.292544e-12	 2.007676e-02
0	 0	 2.007676e-02