# vtk DataFile Version 3.0
Unstructured Grid Example
ASCII
DATASET UNSTRUCTURED_GRID
POINTS 832 float
-1	 0	 0
-1	 0	 3.750000e-01
-1	 0	 7.500000e-01
-1	 0	 1.125000e+00
-1	 0	 1.500000e+00
-1	 0	 1.875000e+00
-1	 0	 2.250000e+00
-1	 0	 2.625000e+00
-1	 0	 3
-9.875000e-01	 0	 0
-9.875000e-01	 0	 1.500000e+00
-9.875000e-01	 0	 3
-9.875000e-01	 0	 2.250000e+00
-9.875000e-01	 0	 7.500000e-01
-9.833054e-01	 -1.819631e-01	 7.500000e-01
-9.833054e-01	 -1.819631e-01	 0
-9.833054e-01	 -1.819631e-01	 1.500000e+00
-9.833054e-01	 -1.819631e-01	 3.000000e+00
-9.833054e-01	 1.819631e-01	 2.250000e+00
-9.833054e-01	 1.819631e-01	 0
-9.833054e-01	 1.819631e-01	 1.500000e+00
-9.833054e-01	 1.819631e-01	 3.000000e+00
-9.833054e-01	 1.819631e-01	 7.500000e-01
-9.833054e-01	 -1.819631e-01	 2.250000e+00
-9.750000e-01	 0	 7.500000e-01
-9.750000e-01	 0	 1.125000e+00
-9.750000e-01	 0	 0
-9.750000e-01	 0	 3.750000e-01
-9.750000e-01	 0	 1.875000e+00
-9.750000e-01	 0	 2.625000e+00
-9.750000e-01	 0	 3
-9.750000e-01	 0	 1.500000e+00
-9.750000e-01	 0	 2.250000e+00
-9.625000e-01	 0	 1.500000e+00
-9.625000e-01	 0	 2.250000e+00
-9.625000e-01	 0	 0
-9.625000e-01	 0	 7.500000e-01
-9.625000e-01	 0	 3
-9.587227e-01	 -1.774140e-01	 0
-9.587227e-01	 -1.774140e-01	 3.000000e+00
-9.587227e-01	 -1.774140e-01	 1.500000e+00
-9.587227e-01	 1.774140e-01	 0
-9.587227e-01	 1.774140e-01	 3.000000e+00
-9.587227e-01	 1.774140e-01	 1.500000e+00
-9.587227e-01	 1.774140e-01	 7.500000e-01
-9.587227e-01	 -1.774140e-01	 7.500000e-01
-9.587227e-01	 -1.774140e-01	 2.250000e+00
-9.587227e-01	 1.774140e-01	 2.250000e+00
-9.500000e-01	 0	 0
-9.500000e-01	 0	 3.750000e-01
-9.500000e-01	 0	 1.125000e+00
-9.500000e-01	 0	 1.500000e+00
-9.500000e-01	 0	 1.875000e+00
-9.500000e-01	 0	 2.250000e+00
-9.500000e-01	 0	 2.625000e+00
-9.500000e-01	 0	 3
-9.500000e-01	 0	 7.500000e-01
-9.341401e-01	 -1.728649e-01	 1.500000e+00
-9.341401e-01	 -1.728649e-01	 0
-9.341401e-01	 -1.728649e-01	 3.000000e+00
-9.341401e-01	 1.728649e-01	 2.250000e+00
-9.341401e-01	 1.728649e-01	 0
-9.341401e-01	 1.728649e-01	 1.500000e+00
-9.341401e-01	 1.728649e-01	 3.000000e+00
-9.341401e-01	 -1.728649e-01	 7.500000e-01
-9.341401e-01	 -1.728649e-01	 2.250000e+00
-9.341401e-01	 1.728649e-01	 7.500000e-01
-9.297883e-01	 -3.680947e-01	 1.125000e+00
-9.297883e-01	 -3.680947e-01	 0
-9.297883e-01	 -3.680947e-01	 7.500000e-01
-9.297883e-01	 -3.680947e-01	 1.500000e+00
-9.297883e-01	 -3.680947e-01	 1.875000e+00
-9.297883e-01	 -3.680947e-01	 2.250000e+00
-9.297883e-01	 -3.680947e-01	 2.625000e+00
-9.297883e-01	 -3.680947e-01	 3.000000e+00
-9.297883e-01	 -3.680947e-01	 3.750000e-01
-9.297883e-01	 3.680947e-01	 3.750000e-01
-9.297883e-01	 3.680947e-01	 2.250000e+00
-9.297883e-01	 3.680947e-01	 2.625000e+00
-9.297883e-01	 3.680947e-01	 0
-9.297883e-01	 3.680947e-01	 7.500000e-01
-9.297883e-01	 3.680947e-01	 1.500000e+00
-9.297883e-01	 3.680947e-01	 1.875000e+00
-9.297883e-01	 3.680947e-01	 3.000000e+00
-9.297883e-01	 3.680947e-01	 1.125000e+00
-9.181659e-01	 3.634935e-01	 7.500000e-01
-9.181659e-01	 -3.634935e-01	 0
-9.181659e-01	 -3.634935e-01	 7.500000e-01
-9.181659e-01	 -3.634935e-01	 2.250000e+00
-9.181659e-01	 -3.634935e-01	 3
-9.181659e-01	 3.634935e-01	 0
-9.181659e-01	 3.634935e-01	 2.250000e+00
-9.181659e-01	 3.634935e-01	 3
-9.181659e-01	 -3.634935e-01	 1.500000e+00
-9.181659e-01	 3.634935e-01	 1.500000e+00
-9.065436e-01	 -3.588923e-01	 1.125000e+00
-9.065436e-01	 -3.588923e-01	 2.625000e+00
-9.065436e-01	 -3.588923e-01	 0
-9.065436e-01	 -3.588923e-01	 3.750000e-01
-9.065436e-01	 -3.588923e-01	 1.500000e+00
-9.065436e-01	 -3.588923e-01	 3
-9.065436e-01	 3.588923e-01	 2.625000e+00
-9.065436e-01	 3.588923e-01	 1.125000e+00
-9.065436e-01	 3.588923e-01	 0
-9.065436e-01	 3.588923e-01	 3.750000e-01
-9.065436e-01	 3.588923e-01	 3
-9.065436e-01	 -3.588923e-01	 7.500000e-01
-9.065436e-01	 -3.588923e-01	 1.875000e+00
-9.065436e-01	 3.588923e-01	 1.875000e+00
-9.065436e-01	 3.588923e-01	 1.500000e+00
-9.065436e-01	 -3.588923e-01	 2.250000e+00
-9.065436e-01	 3.588923e-01	 7.500000e-01
-9.065436e-01	 3.588923e-01	 2.250000e+00
-8.949212e-01	 3.542912e-01	 1.500000e+00
-8.949212e-01	 -3.542912e-01	 1.500000e+00
-8.949212e-01	 -3.542912e-01	 0
-8.949212e-01	 -3.542912e-01	 3.000000e+00
-8.949212e-01	 3.542912e-01	 0
-8.949212e-01	 3.542912e-01	 3.000000e+00
-8.949212e-01	 -3.542912e-01	 2.250000e+00
-8.949212e-01	 -3.542912e-01	 7.500000e-01
-8.949212e-01	 3.542912e-01	 2.250000e+00
-8.949212e-01	 3.542912e-01	 7.500000e-01
-8.832989e-01	 -3.496900e-01	 1.125000e+00
-8.832989e-01	 -3.496900e-01	 1.875000e+00
-8.832989e-01	 -3.496900e-01	 2.625000e+00
-8.832989e-01	 -3.496900e-01	 2.250000e+00
-8.832989e-01	 3.496900e-01	 1.125000e+00
-8.832989e-01	 -3.496900e-01	 0
-8.832989e-01	 -3.496900e-01	 3.000000e+00
-8.832989e-01	 -3.496900e-01	 3.750000e-01
-8.832989e-01	 -3.496900e-01	 7.500000e-01
-8.832989e-01	 3.496900e-01	 3.750000e-01
-8.832989e-01	 3.496900e-01	 7.500000e-01
-8.832989e-01	 3.496900e-01	 2.250000e+00
-8.832989e-01	 3.496900e-01	 2.625000e+00
-8.832989e-01	 3.496900e-01	 0
-8.832989e-01	 3.496900e-01	 1.875000e+00
-8.832989e-01	 3.496900e-01	 3.000000e+00
-8.832989e-01	 -3.496900e-01	 1.500000e+00
-8.832989e-01	 3.496900e-01	 1.500000e+00
-8.369955e-01	 -5.472098e-01	 0
-8.369955e-01	 -5.472098e-01	 7.500000e-01
-8.369955e-01	 -5.472098e-01	 1.500000e+00
-8.369955e-01	 -5.472098e-01	 2.250000e+00
-8.369955e-01	 -5.472098e-01	 3
-8.369955e-01	 5.472098e-01	 0
-8.369955e-01	 5.472098e-01	 7.500000e-01
-8.369955e-01	 5.472098e-01	 1.500000e+00
-8.369955e-01	 5.472098e-01	 2.250000e+00
-8.369955e-01	 5.472098e-01	 3
-8.160706e-01	 -5.335295e-01	 7.500000e-01
-8.160706e-01	 5.335295e-01	 7.500000e-01
-8.160706e-01	 -5.335295e-01	 1.500000e+00
-8.160706e-01	 -5.335295e-01	 2.250000e+00
-8.160706e-01	 5.335295e-01	 1.500000e+00
-8.160706e-01	 5.335295e-01	 2.250000e+00
-8.160706e-01	 -5.335295e-01	 0
-8.160706e-01	 -5.335295e-01	 3.000000e+00
-8.160706e-01	 5.335295e-01	 0
-8.160706e-01	 5.335295e-01	 3.000000e+00
-7.951457e-01	 -5.198493e-01	 7.500000e-01
-7.951457e-01	 5.198493e-01	 7.500000e-01
-7.951457e-01	 -5.198493e-01	 0
-7.951457e-01	 -5.198493e-01	 1.500000e+00
-7.951457e-01	 -5.198493e-01	 2.250000e+00
-7.951457e-01	 -5.198493e-01	 3
-7.951457e-01	 5.198493e-01	 0
-7.951457e-01	 5.198493e-01	 1.500000e+00
-7.951457e-01	 5.198493e-01	 2.250000e+00
-7.951457e-01	 5.198493e-01	 3
-7.071068e-01	 -7.071068e-01	 0
-7.071068e-01	 -7.071068e-01	 3.750000e-01
-7.071068e-01	 -7.071068e-01	 7.500000e-01
-7.071068e-01	 -7.071068e-01	 1.125000e+00
-7.071068e-01	 -7.071068e-01	 1.500000e+00
-7.071068e-01	 -7.071068e-01	 1.875000e+00
-7.071068e-01	 -7.071068e-01	 2.250000e+00
-7.071068e-01	 -7.071068e-01	 2.625000e+00
-7.071068e-01	 -7.071068e-01	 3.000000e+00
-7.071068e-01	 7.071068e-01	 0
-7.071068e-01	 7.071068e-01	 3.750000e-01
-7.071068e-01	 7.071068e-01	 7.500000e-01
-7.071068e-01	 7.071068e-01	 1.125000e+00
-7.071068e-01	 7.071068e-01	 1.500000e+00
-7.071068e-01	 7.071068e-01	 1.875000e+00
-7.071068e-01	 7.071068e-01	 2.250000e+00
-7.071068e-01	 7.071068e-01	 2.625000e+00
-7.071068e-01	 7.071068e-01	 3.000000e+00
-6.982679e-01	 -6.982679e-01	 7.500000e-01
-6.982679e-01	 6.982679e-01	 7.500000e-01
-6.982679e-01	 -6.982679e-01	 0
-6.982679e-01	 -6.982679e-01	 2.250000e+00
-6.982679e-01	 -6.982679e-01	 3.000000e+00
-6.982679e-01	 6.982679e-01	 0
-6.982679e-01	 6.982679e-01	 2.250000e+00
-6.982679e-01	 6.982679e-01	 3.000000e+00
-6.982679e-01	 -6.982679e-01	 1.500000e+00
-6.982679e-01	 6.982679e-01	 1.500000e+00
-6.894291e-01	 -6.894291e-01	 3.750000e-01
-6.894291e-01	 -6.894291e-01	 2.625000e+00
-6.894291e-01	 -6.894291e-01	 0
-6.894291e-01	 -6.894291e-01	 1.500000e+00
-6.894291e-01	 -6.894291e-01	 2.250000e+00
-6.894291e-01	 -6.894291e-01	 3.000000e+00
-6.894291e-01	 6.894291e-01	 3.750000e-01
-6.894291e-01	 6.894291e-01	 2.625000e+00
-6.894291e-01	 -6.894291e-01	 1.875000e+00
-6.894291e-01	 6.894291e-01	 1.875000e+00
-6.894291e-01	 -6.894291e-01	 7.500000e-01
-6.894291e-01	 -6.894291e-01	 1.125000e+00
-6.894291e-01	 6.894291e-01	 0
-6.894291e-01	 6.894291e-01	 1.500000e+00
-6.894291e-01	 6.894291e-01	 2.250000e+00
-6.894291e-01	 6.894291e-01	 3.000000e+00
-6.894291e-01	 6.894291e-01	 7.500000e-01
-6.894291e-01	 6.894291e-01	 1.125000e+00
-6.805903e-01	 6.805903e-01	 7.500000e-01
-6.805903e-01	 -6.805903e-01	 7.500000e-01
-6.805903e-01	 -6.805903e-01	 0
-6.805903e-01	 -6.805903e-01	 1.500000e+00
-6.805903e-01	 -6.805903e-01	 3.000000e+00
-6.805903e-01	 6.805903e-01	 0
-6.805903e-01	 6.805903e-01	 1.500000e+00
-6.805903e-01	 6.805903e-01	 3.000000e+00
-6.805903e-01	 6.805903e-01	 2.250000e+00
-6.805903e-01	 -6.805903e-01	 2.250000e+00
-6.717514e-01	 -6.717514e-01	 2.625000e+00
-6.717514e-01	 6.717514e-01	 2.625000e+00
-6.717514e-01	 -6.717514e-01	 0
-6.717514e-01	 -6.717514e-01	 3.750000e-01
-6.717514e-01	 -6.717514e-01	 7.500000e-01
-6.717514e-01	 -6.717514e-01	 1.125000e+00
-6.717514e-01	 -6.717514e-01	 1.875000e+00
-6.717514e-01	 -6.717514e-01	 3.000000e+00
-6.717514e-01	 -6.717514e-01	 2.250000e+00
-6.717514e-01	 6.717514e-01	 1.500000e+00
-6.717514e-01	 6.717514e-01	 0
-6.717514e-01	 6.717514e-01	 3.750000e-01
-6.717514e-01	 6.717514e-01	 7.500000e-01
-6.717514e-01	 6.717514e-01	 1.125000e+00
-6.717514e-01	 6.717514e-01	 1.875000e+00
-6.717514e-01	 6.717514e-01	 3.000000e+00
-6.717514e-01	 -6.717514e-01	 1.500000e+00
-6.717514e-01	 6.717514e-01	 2.250000e+00
-5.472098e-01	 -8.369955e-01	 0
-5.472098e-01	 -8.369955e-01	 7.500000e-01
-5.472098e-01	 -8.369955e-01	 1.500000e+00
-5.472098e-01	 -8.369955e-01	 2.250000e+00
-5.472098e-01	 -8.369955e-01	 3
-5.472098e-01	 8.369955e-01	 0
-5.472098e-01	 8.369955e-01	 7.500000e-01
-5.472098e-01	 8.369955e-01	 1.500000e+00
-5.472098e-01	 8.369955e-01	 2.250000e+00
-5.472098e-01	 8.369955e-01	 3
-5.335295e-01	 -8.160706e-01	 1.500000e+00
-5.335295e-01	 -8.160706e-01	 2.250000e+00
-5.335295e-01	 8.160706e-01	 0
-5.335295e-01	 8.160706e-01	 3.000000e+00
[...]
POINT_DATA 832
VECTORS displacement float
0	 0	 8.786883e-12
4.026011e-11	 9.549879e-18	 8.047171e-12
7.349562e-11	 1.630228e-17	 6.213265e-12
9.719651e-11	 1.744078e-17	 3.333249e-12
1.039385e-10	 1.482606e-17	 2.975154e-18
9.719650e-11	 9.511182e-18	 -3.333242e-12
7.349562e-11	 4.672864e-18	 -6.213258e-12
4.026011e-11	 1.620516e-18	 -8.047163e-12
0	 0	 -8.786874e-12
0	 0	 7.386623e-12
1.042400e-10	 1.907330e-17	 3.094723e-18
0	 0	 -7.386614e-12
7.370879e-11	 7.410834e-18	 -5.223124e-12
7.370879e-11	 1.957229e-17	 5.223132e-12
5.609649e-11	 2.387354e-12	 4.816378e-12
0	 0	 6.811387e-12
7.933241e-11	 3.376221e-12	 1.149460e-18
0	 0	 -6.811377e-12
5.609641e-11	 -2.387325e-12	 -4.816361e-12
0	 0	 6.811373e-12
7.933230e-11	 -3.376179e-12	 4.866848e-18
0	 0	 -6.811365e-12
5.609641e-11	 -2.387313e-12	 4.816370e-12
5.609648e-11	 2.387343e-12	 -4.816372e-12
7.381898e-11	 2.284352e-17	 4.241423e-12
9.752160e-11	 2.585119e-17	 2.304305e-12
0	 0	 5.998277e-12
4.039477e-11	 1.333396e-17	 5.563080e-12
9.752160e-11	 1.689962e-17	 -2.304298e-12
4.039477e-11	 4.382755e-18	 -5.563072e-12
0	 0	 -5.998269e-12
1.043958e-10	 2.331175e-17	 3.215872e-18
7.381897e-11	 1.013516e-17	 -4.241416e-12
1.045054e-10	 2.750267e-17	 3.337193e-18
7.389646e-11	 1.283454e-17	 -3.257207e-12
0	 0	 4.606395e-12
7.389646e-11	 2.607246e-17	 3.257214e-12
0	 0	 -4.606387e-12
0	 0	 4.725227e-12
0	 0	 -4.725218e-12
8.063046e-11	 -3.048425e-12	 1.809483e-18
0	 0	 4.725217e-12
0	 0	 -4.725209e-12
8.063035e-11	 3.048479e-12	 4.689239e-18
5.701427e-11	 2.155607e-12	 3.341234e-12
5.701435e-11	 -2.155555e-12	 3.341240e-12
5.701434e-11	 -2.155568e-12	 -3.341234e-12
5.701427e-11	 2.155594e-12	 -3.341226e-12
0	 0	 3.202675e-12
4.036704e-11	 1.708893e-17	 3.071279e-12
9.745466e-11	 3.419395e-17	 1.272167e-12
1.044407e-10	 3.171914e-17	 3.457488e-18
9.745466e-11	 2.422413e-17	 -1.272161e-12
7.385072e-11	 1.555095e-17	 -2.264627e-12
4.036704e-11	 7.119593e-18	 -3.071272e-12
0	 0	 -3.202667e-12
7.385073e-11	 2.932053e-17	 2.264634e-12
8.155292e-11	 -9.606190e-12	 2.472175e-18
0	 0	 2.643834e-12
0	 0	 -2.643827e-12
5.766655e-11	 6.792643e-12	 -1.869461e-12
0	 0	 2.643828e-12
8.155281e-11	 9.606258e-12	 4.510870e-18
0	 0	 -2.643819e-12
5.766663e-11	 -6.792594e-12	 1.869473e-12
5.766661e-11	 -6.792610e-12	 -1.869467e-12
5.766654e-11	 6.792657e-12	 1.869470e-12
8.840203e-12	 -1.201483e-11	 1.576573e-13
0	 0	 4.361710e-13
6.760316e-12	 -9.253602e-12	 3.084179e-13
9.560506e-12	 -1.308658e-11	 -7.079228e-19
8.840177e-12	 -1.201484e-11	 -1.576564e-13
6.760282e-12	 -9.253618e-12	 -3.084130e-13
3.661714e-12	 -4.976714e-12	 -3.806128e-13
0	 0	 -4.361596e-13
3.661739e-12	 -4.976701e-12	 3.806219e-13
3.661648e-12	 4.976740e-12	 3.806019e-13
6.760169e-12	 9.253651e-12	 -3.083948e-13
3.661657e-12	 4.976729e-12	 -3.805932e-13
0	 0	 4.361473e-13
6.760159e-12	 9.253666e-12	 3.084054e-13
9.560316e-12	 1.308665e-11	 6.941435e-18
8.840017e-12	 1.201489e-11	 -1.576424e-13
0	 0	 -4.361399e-13
8.840008e-12	 1.201490e-11	 1.576550e-13
8.236055e-12	 1.301056e-11	 2.673351e-13
0	 0	 3.780854e-13
8.236211e-12	 -1.301049e-11	 2.673456e-13
8.236177e-12	 -1.301051e-11	 -2.673406e-13
0	 0	 -3.780752e-13
0	 0	 3.780654e-13
8.236065e-12	 1.301055e-11	 -2.673244e-13
0	 0	 -3.780573e-13
1.164774e-11	 -1.839963e-11	 -9.557967e-20
1.164755e-11	 1.839970e-11	 6.635668e-18
1.266485e-11	 -2.173170e-11	 1.186274e-13
5.245933e-12	 -9.001576e-12	 -2.863853e-13
0	 0	 3.193655e-13
5.245958e-12	 -9.001562e-12	 2.863932e-13
1.372197e-11	 -2.366489e-11	 5.147117e-19
0	 0	 -3.193566e-13
5.245877e-12	 9.001593e-12	 -2.863696e-13
1.266465e-11	 2.173179e-11	 1.186261e-13
0	 0	 3.193492e-13
5.245868e-12	 9.001605e-12	 2.863788e-13
0	 0	 -3.193406e-13
9.702914e-12	 -1.673360e-11	 2.258249e-13
1.266482e-11	 -2.173172e-11	 -1.186252e-13
1.266466e-11	 2.173178e-11	 -1.186140e-13
1.372178e-11	 2.366497e-11	 6.328800e-18
9.702881e-12	 -1.673362e-11	 -2.258199e-13
9.702760e-12	 1.673367e-11	 2.258163e-13
9.702770e-12	 1.673365e-11	 -2.258056e-13
1.578033e-11	 2.888057e-11	 6.021576e-18
1.578052e-11	 -2.888049e-11	 1.125596e-18
0	 0	 2.595501e-13
0	 0	 -2.595424e-13
0	 0	 2.595375e-13
0	 0	 -2.595282e-13
1.115849e-11	 -2.042160e-11	 -1.835244e-13
1.115853e-11	 -2.042158e-11	 1.835294e-13
1.115838e-11	 2.042164e-11	 -1.835121e-13
1.115837e-11	 2.042165e-11	 1.835228e-13
1.647274e-11	 -3.136352e-11	 7.852300e-14
1.647272e-11	 -3.136354e-11	 -7.851954e-14
6.823216e-12	 -1.299121e-11	 -1.895638e-13
1.263147e-11	 -2.414256e-11	 -1.413200e-13
1.647255e-11	 3.136362e-11	 7.852287e-14
0	 0	 1.998635e-13
0	 0	 -1.998570e-13
6.823241e-12	 -1.299119e-11	 1.895704e-13
1.263150e-11	 -2.414254e-11	 1.413250e-13
6.823152e-12	 1.299124e-11	 1.895617e-13
1.263135e-11	 2.414262e-11	 1.413204e-13
1.263136e-11	 2.414260e-11	 -1.413097e-13
6.823161e-12	 1.299123e-11	 -1.895521e-13
0	 0	 1.998546e-13
1.647256e-11	 3.136360e-11	 -7.851120e-14
0	 0	 -1.998447e-13
1.786362e-11	 -3.414272e-11	 1.740241e-18
1.786343e-11	 3.414280e-11	 5.714332e-18
0	 0	 -6.231512e-12
-3.782709e-11	 -3.510505e-11	 -4.406347e-12
-5.349562e-11	 -4.964606e-11	 -1.697636e-18
-3.782714e-11	 -3.510507e-11	 4.406351e-12
0	 0	 6.231524e-12
0	 0	 -6.231538e-12
-3.782728e-11	 3.510514e-11	 -4.406359e-12
-5.349583e-11	 4.964614e-11	 9.067040e-18
-3.782725e-11	 3.510512e-11	 4.406372e-12
0	 0	 6.231545e-12
-3.544133e-11	 -3.884331e-11	 -3.058285e-12
-3.544151e-11	 3.884340e-11	 -3.058293e-12
-5.012164e-11	 -5.493276e-11	 -2.495351e-19
-3.544137e-11	 -3.884334e-11	 3.058290e-12
-5.012185e-11	 5.493285e-11	 8.089122e-18
-3.544149e-11	 3.884338e-11	 3.058306e-12
0	 0	 -4.325067e-12
0	 0	 4.325076e-12
0	 0	 -4.325084e-12
0	 0	 4.325093e-12
-3.282012e-11	 -4.247217e-11	 -1.712056e-12
-3.282030e-11	 4.247226e-11	 -1.712060e-12
0	 0	 -2.421213e-12
-4.641469e-11	 -6.006474e-11	 1.199393e-18
-3.282016e-11	 -4.247220e-11	 1.712061e-12
0	 0	 2.421220e-12
0	 0	 -2.421222e-12
-4.641490e-11	 6.006482e-11	 7.108483e-18
-3.282028e-11	 4.247223e-11	 1.712073e-12
0	 0	 2.421233e-12
0	 0	 -8.541569e-12
-2.720040e-11	 -2.720041e-11	 -7.799180e-12
-4.957889e-11	 -4.957890e-11	 -6.039803e-12
-6.566759e-11	 -6.566760e-11	 -3.230527e-12
-7.011517e-11	 -7.011517e-11	 -3.823732e-19
-6.566762e-11	 -6.566761e-11	 3.230528e-12
-4.957893e-11	 -4.957892e-11	 6.039807e-12
-2.720042e-11	 -2.720042e-11	 7.799188e-12
0	 0	 8.541578e-12
0	 0	 -8.541583e-12
-2.720049e-11	 2.720045e-11	 -7.799191e-12
-4.957904e-11	 4.957897e-11	 -6.039806e-12
-6.566777e-11	 6.566767e-11	 -3.230523e-12
-7.011533e-11	 7.011523e-11	 1.092486e-17
-6.566775e-11	 6.566765e-11	 3.230542e-12
-4.957901e-11	 4.957894e-11	 6.039821e-12
-2.720046e-11	 2.720043e-11	 7.799201e-12
0	 0	 8.541591e-12
-4.971815e-11	 -4.971816e-11	 -5.089751e-12
-4.971830e-11	 4.971822e-11	 -5.089754e-12
0	 0	 -7.197994e-12
-4.971818e-11	 -4.971818e-11	 5.089755e-12
0	 0	 7.198002e-12
0	 0	 -7.198004e-12
-4.971827e-11	 4.971819e-11	 5.089768e-12
0	 0	 7.198014e-12
-7.031211e-11	 -7.031211e-11	 9.467977e-20
-7.031227e-11	 7.031216e-11	 1.026278e-17
-2.728958e-11	 -2.728958e-11	 -5.429391e-12
-2.728960e-11	 -2.728959e-11	 5.429397e-12
0	 0	 -5.863885e-12
-7.042443e-11	 -7.042443e-11	 5.671304e-19
-4.979761e-11	 -4.979760e-11	 4.146397e-12
0	 0	 5.863892e-12
-2.728967e-11	 2.728962e-11	 -5.429397e-12
-2.728964e-11	 2.728960e-11	 5.429409e-12
-6.588291e-11	 -6.588290e-11	 2.248930e-12
-6.588304e-11	 6.588293e-11	 2.248941e-12
-4.979757e-11	 -4.979758e-11	 -4.146393e-12
-6.588288e-11	 -6.588289e-11	 -2.248928e-12
0	 0	 -5.863892e-12
-7.042460e-11	 7.042448e-11	 9.603582e-18
-4.979770e-11	 4.979761e-11	 4.146409e-12
0	 0	 5.863903e-12
-4.979773e-11	 4.979764e-11	 -4.146394e-12
-6.588307e-11	 6.588295e-11	 -2.248923e-12
-4.986396e-11	 4.986387e-11	 -3.201792e-12
-4.986381e-11	 -4.986381e-11	 -3.201792e-12
0	 0	 -4.528018e-12
-7.051810e-11	 -7.051809e-11	 1.039926e-18
0	 0	 4.528024e-12
0	 0	 -4.528022e-12
-7.051827e-11	 7.051814e-11	 8.943659e-18
0	 0	 4.528034e-12
-4.986393e-11	 4.986384e-11	 3.201807e-12
-4.986384e-11	 -4.986383e-11	 3.201797e-12
-2.728839e-11	 -2.728838e-11	 3.053705e-12
-2.728843e-11	 2.728838e-11	 3.053714e-12
0	 0	 -3.181732e-12
-2.728836e-11	 -2.728837e-11	 -3.053701e-12
-4.985668e-11	 -4.985669e-11	 -2.249824e-12
-6.587996e-11	 -6.587996e-11	 -1.264883e-12
-6.587998e-11	 -6.587997e-11	 1.264887e-12
0	 0	 3.181737e-12
-4.985672e-11	 -4.985670e-11	 2.249828e-12
-7.050820e-11	 7.050805e-11	 8.278824e-18
0	 0	 -3.181732e-12
-2.728846e-11	 2.728840e-11	 -3.053701e-12
-4.985684e-11	 4.985674e-11	 -2.249821e-12
-6.588015e-11	 6.588001e-11	 -1.264879e-12
-6.588013e-11	 6.587999e-11	 1.264895e-12
0	 0	 3.181745e-12
-7.050802e-11	 -7.050801e-11	 1.518595e-18
-4.985681e-11	 4.985671e-11	 2.249836e-12
0	 0	 -6.231512e-12
-3.510504e-11	 -3.782710e-11	 -4.406344e-12
-4.964603e-11	 -5.349559e-11	 2.207291e-18
-3.510505e-11	 -3.782709e-11	 4.406348e-12
0	 0	 6.231516e-12
0	 0	 -6.231505e-12
-3.510512e-11	 3.782709e-11	 -4.406334e-12
-4.964611e-11	 5.349556e-11	 1.184020e-17
-3.510509e-11	 3.782705e-11	 4.406351e-12
0	 0	 6.231515e-12
-5.493273e-11	 -5.012161e-11	 2.202381e-18
-3.884332e-11	 -3.544133e-11	 3.058287e-12
0	 0	 -4.325057e-12
0	 0	 4.325070e-12
-5.493283e-11	 5.012157e-11	 1.060111e-17
-3.884336e-11	 3.544128e-11	 3.058291e-12
-3.884330e-11	 -3.544133e-11	 -3.058283e-12
0	 0	 -4.325067e-12
0	 0	 4.325071e-12
-3.884339e-11	 3.544132e-11	 -3.058273e-12
-4.247226e-11	 3.282009e-11	 -1.712045e-12
-4.247216e-11	 -3.282012e-11	 -1.712055e-12
0	 0	 -2.421213e-12
-6.006472e-11	 -4.641465e-11	 2.197699e-18
-4.247218e-11	 -3.282011e-11	 1.712059e-12
0	 0	 2.421217e-12
0	 0	 -2.421202e-12
-6.006483e-11	 4.641460e-11	 9.361341e-18
-4.247223e-11	 3.282006e-11	 1.712062e-12
0	 0	 2.421217e-12
-1.201481e-11	 8.840218e-12	 1.576633e-13
-1.201482e-11	 -8.840385e-12	 1.576784e-13
0	 0	 4.361706e-13
-9.253590e-12	 6.760312e-12	 3.084219e-13
-1.308655e-11	 9.560551e-12	 5.208253e-18
-1.201480e-11	 8.840245e-12	 -1.576547e-13
0	 0	 -4.361712e-13
0	 0	 4.362032e-13
-9.253604e-12	 -6.760444e-12	 3.084459e-13
-1.308656e-11	 -9.560720e-12	 1.071416e-17
-1.201481e-11	 -8.840393e-12	 -1.576576e-13
-9.253586e-12	 -6.760456e-12	 -3.084266e-13
-4.976693e-12	 -3.661813e-12	 -3.806355e-13
0	 0	 -4.361862e-13
-4.976698e-12	 3.661730e-12	 3.806231e-13
-9.253584e-12	 6.760349e-12	 -3.084170e-13
-4.976693e-12	 3.661758e-12	 -3.806218e-13
-4.976705e-12	 -3.661805e-12	 3.806531e-13
-1.839960e-11	 1.164778e-11	 4.661285e-18
-1.839962e-11	 -1.164796e-11	 1.049429e-17
-1.301048e-11	 8.236207e-12	 2.673490e-13
0	 0	 3.780854e-13
-1.301048e-11	 8.236245e-12	 -2.673441e-13
0	 0	 -3.780849e-13
0	 0	 3.781156e-13
-1.301050e-11	 -8.236343e-12	 2.673715e-13
-1.301048e-11	 -8.236354e-12	 -2.673523e-13
0	 0	 -3.780981e-13
-1.673358e-11	 9.702949e-12	 -2.258229e-13
-1.673359e-11	 -9.703060e-12	 -2.258295e-13
-2.173171e-11	 -1.266504e-11	 1.186455e-13
-9.001560e-12	 -5.246035e-12	 -2.864021e-13
0	 0	 3.193660e-13
-9.001557e-12	 5.245948e-12	 2.863944e-13
0	 0	 -3.193644e-13
-2.366486e-11	 1.372201e-11	 4.118503e-18
0	 0	 3.193938e-13
-9.001576e-12	 -5.246027e-12	 2.864204e-13
-2.366489e-11	 -1.372219e-11	 1.027774e-17
0	 0	 -3.193759e-13
-2.173168e-11	 1.266486e-11	 1.186315e-13
-2.173168e-11	 1.266489e-11	 -1.186243e-13
-1.673359e-11	 9.702910e-12	 2.258278e-13
-1.673362e-11	 -9.703049e-12	 2.258488e-13
-2.173170e-11	 -1.266504e-11	 -1.186254e-13
-9.001556e-12	 5.245977e-12	 -2.863918e-13
-2.888045e-11	 1.578056e-11	 3.574691e-18
-2.042156e-11	 1.115856e-11	 -1.835269e-13
-2.042158e-11	 -1.115867e-11	 -1.835321e-13
0	 0	 2.595763e-13
0	 0	 -2.595580e-13
-2.888049e-11	 -1.578074e-11	 1.006138e-17
0	 0	 2.595510e-13
0	 0	 -2.595483e-13
-2.042156e-11	 1.115852e-11	 1.835318e-13
-2.042160e-11	 -1.115866e-11	 1.835513e-13
-3.136350e-11	 1.647276e-11	 7.852527e-14
0	 0	 1.998648e-13
-3.136350e-11	 1.647279e-11	 -7.851941e-14
0	 0	 -1.998611e-13
-3.414268e-11	 1.786366e-11	 3.025354e-18
0	 0	 1.998877e-13
0	 0	 -1.998689e-13
-3.136356e-11	 -1.647294e-11	 7.853808e-14
-3.136354e-11	 -1.647295e-11	 -7.851862e-14
-1.299120e-11	 -6.823320e-12	 -1.895747e-13
-1.299119e-11	 6.823230e-12	 1.895717e-13
-2.414252e-11	 1.263150e-11	 1.413269e-13
-2.414253e-11	 1.263154e-11	 -1.413220e-13
-1.299119e-11	 6.823260e-12	 -1.895677e-13
-3.414273e-11	 -1.786385e-11	 9.841329e-18
-1.299122e-11	 -6.823313e-12	 1.895937e-13
-2.414255e-11	 -1.263165e-11	 -1.413257e-13
-2.414257e-11	 -1.263164e-11	 1.413449e-13
2.387364e-12	 5.609648e-11	 4.816381e-12
2.387377e-12	 -5.609673e-11	 4.816416e-12
0	 0	 6.811386e-12
3.376249e-12	 7.933245e-11	 7.229747e-18
0	 0	 -6.811389e-12
0	 0	 6.811438e-12
3.376267e-12	 -7.933274e-11	 9.025217e-18
0	 0	 -6.811414e-12
2.387373e-12	 5.609654e-11	 -4.816375e-12
2.387385e-12	 -5.609671e-11	 -4.816395e-12
-2.155544e-12	 5.701434e-11	 3.341243e-12
0	 0	 4.725227e-12
0	 0	 -4.725226e-12
-2.155541e-12	 -5.701459e-11	 3.341272e-12
-2.155529e-12	 -5.701457e-11	 -3.341251e-12
0	 0	 4.725268e-12
0	 0	 -4.725245e-12
-2.155536e-12	 5.701440e-11	 -3.341237e-12
-3.048387e-12	 -8.063079e-11	 9.575539e-18
-3.048394e-12	 8.063050e-11	 5.575844e-18
-9.606162e-12	 -8.155325e-11	 1.012515e-17
0	 0	 2.643835e-12
-9.606158e-12	 8.155295e-11	 3.922840e-18
0	 0	 -2.643831e-12
0	 0	 2.643866e-12
0	 0	 -2.643844e-12
-6.792575e-12	 5.766668e-11	 -1.869469e-12
-6.792583e-12	 5.766662e-11	 1.869475e-12
-6.792590e-12	 -5.766687e-11	 1.869499e-12
-6.792574e-12	 -5.766684e-11	 -1.869478e-12
0	 0	 8.786882e-12
1.428032e-17	 4.026010e-11	 8.047171e-12
2.713135e-17	 7.349561e-11	 6.213267e-12
3.615412e-17	 9.719650e-11	 3.333252e-12
4.066293e-17	 1.039385e-10	 6.719401e-18
3.853865e-17	 9.719654e-11	 -3.333241e-12
3.038027e-17	 7.349566e-11	 -6.213260e-12
1.666411e-17	 4.026013e-11	 -8.047168e-12
0	 0	 -8.786881e-12
0	 0	 7.386622e-12
4.667854e-17	 1.042400e-10	 6.098484e-18
0	 0	 -7.386620e-12
3.569388e-17	 7.370882e-11	 -5.223126e-12
3.032423e-17	 7.370878e-11	 5.223133e-12
3.350947e-17	 7.381897e-11	 4.241425e-12
4.585694e-17	 9.752160e-11	 2.304307e-12
0	 0	 5.998277e-12
1.747727e-17	 4.039476e-11	 5.563080e-12
5.104881e-17	 9.752163e-11	 -2.304298e-12
2.266826e-17	 4.039479e-11	 -5.563076e-12
0	 0	 -5.998273e-12
5.266026e-17	 1.043958e-10	 5.483564e-18
4.096721e-17	 7.381901e-11	 -4.241417e-12
5.858514e-17	 1.045054e-10	 4.867390e-18
4.619434e-17	 7.389649e-11	 -3.257208e-12
0	 0	 4.606395e-12
3.666051e-17	 7.389645e-11	 3.257215e-12
0	 0	 -4.606391e-12
0	 0	 3.202676e-12
2.064569e-17	 4.036703e-11	 3.071280e-12
5.548073e-17	 9.745466e-11	 1.272169e-12
6.455584e-17	 1.044407e-10	 4.244050e-18
6.346561e-17	 9.745469e-11	 -1.272161e-12
5.146863e-17	 7.385076e-11	 -2.264628e-12
2.862956e-17	 4.036707e-11	 -3.071274e-12
0	 0	 -3.202670e-12
3.982920e-17	 7.385071e-11	 2.264635e-12
4.842278e-17	 -7.385100e-11	 2.264659e-12
0	 0	 3.202708e-12
2.513690e-17	 -4.036719e-11	 3.071311e-12
6.712655e-17	 -9.745501e-11	 1.272184e-12
7.782092e-17	 -1.044410e-10	 1.056998e-17
7.626240e-17	 -9.745497e-11	 -1.272163e-12
6.165064e-17	 -7.385095e-11	 -2.264637e-12
3.426886e-17	 -4.036716e-11	 -3.071287e-12
0	 0	 -3.202684e-12
0	 0	 4.606433e-12
4.467970e-17	 -7.389673e-11	 3.257243e-12
0	 0	 -4.606408e-12
7.151869e-17	 -1.045057e-10	 9.918809e-18
5.647848e-17	 -7.389668e-11	 -3.257220e-12
6.525936e-17	 -1.043961e-10	 9.275106e-18
5.134578e-17	 -7.381920e-11	 -4.241432e-12
0	 0	 5.998320e-12
2.125890e-17	 -4.039492e-11	 5.563121e-12
6.365811e-17	 -9.752191e-11	 -2.304305e-12
2.848975e-17	 -4.039489e-11	 -5.563095e-12
0	 0	 -5.998294e-12
4.095787e-17	 -7.381925e-11	 4.241455e-12
5.642424e-17	 -9.752195e-11	 2.304325e-12
3.719844e-17	 -7.370906e-11	 5.223167e-12
4.617008e-17	 -7.370901e-11	 -5.223144e-12
0	 0	 7.386672e-12
5.894307e-17	 -1.042403e-10	 8.632705e-18
0	 0	 -7.386644e-12
0	 0	 8.786937e-12
1.734962e-17	 -4.026026e-11	 8.047221e-12
3.342974e-17	 -7.349589e-11	 6.213304e-12
4.564172e-17	 -9.719685e-11	 3.333271e-12
5.259880e-17	 -1.039389e-10	 7.984052e-18
5.096704e-17	 -9.719681e-11	 -3.333253e-12
4.096407e-17	 -7.349585e-11	 -6.213281e-12
2.267276e-17	 -4.026023e-11	 -8.047194e-12
0	 0	 -8.786908e-12
6.792665e-12	 5.766654e-11	 1.869470e-12
6.792680e-12	 5.766655e-11	 -1.869461e-12
6.792691e-12	 -5.766677e-11	 1.869491e-12
6.792700e-12	 -5.766672e-11	 -1.869467e-12
0	 0	 2.643828e-12
0	 0	 -2.643820e-12
0	 0	 2.643856e-12
9.606322e-12	 -8.155310e-11	 1.096043e-17
0	 0	 -2.643830e-12
9.606290e-12	 8.155281e-11	 4.620513e-18
3.048529e-12	 -8.063063e-11	 9.417897e-18
3.048510e-12	 8.063035e-11	 4.972693e-18
2.155641e-12	 -5.701444e-11	 -3.341237e-12
0	 0	 4.725217e-12
0	 0	 -4.725209e-12
2.155617e-12	 5.701426e-11	 3.341234e-12
2.155627e-12	 5.701427e-11	 -3.341226e-12
0	 0	 4.725254e-12
0	 0	 -4.725225e-12
2.155630e-12	 -5.701450e-11	 3.341261e-12
-2.387296e-12	 5.609641e-11	 -4.816361e-12
-2.387288e-12	 -5.609658e-11	 -4.816378e-12
0	 0	 6.811373e-12
-3.376150e-12	 7.933230e-11	 5.324700e-18
0	 0	 -6.811366e-12
0	 0	 6.811419e-12
-3.376143e-12	 -7.933258e-11	 7.875295e-18
0	 0	 -6.811387e-12
-2.387301e-12	 5.609640e-11	 4.816370e-12
-2.387300e-12	 -5.609663e-11	 4.816401e-12
2.414262e-11	 1.263136e-11	 1.413194e-13
2.414264e-11	 1.263135e-11	 -1.413089e-13
1.299124e-11	 6.823162e-12	 1.895610e-13
3.414283e-11	 1.786343e-11	 4.988383e-18
1.299128e-11	 -6.823229e-12	 1.895763e-13
2.414269e-11	 -1.263148e-11	 1.413322e-13
2.414269e-11	 -1.263145e-11	 -1.413075e-13
1.299128e-11	 -6.823204e-12	 -1.895505e-13
3.136363e-11	 1.647256e-11	 7.852170e-14
3.136365e-11	 1.647255e-11	 -7.851138e-14
1.299125e-11	 6.823150e-12	 -1.895504e-13
0	 0	 1.998538e-13
0	 0	 -1.998429e-13
3.414292e-11	 -1.786359e-11	 1.181639e-17
0	 0	 1.998694e-13
3.136371e-11	 -1.647269e-11	 -7.850787e-14
0	 0	 -1.998435e-13
3.136371e-11	 -1.647271e-11	 7.853158e-14
2.042166e-11	 1.115839e-11	 1.835216e-13
2.042172e-11	 -1.115850e-11	 1.835356e-13
0	 0	 2.595545e-13
0	 0	 -2.595276e-13
2.888060e-11	 1.578033e-11	 4.702390e-18
0	 0	 2.595372e-13
0	 0	 -2.595257e-13
2.042168e-11	 1.115837e-11	 -1.835112e-13
2.042172e-11	 -1.115847e-11	 -1.835108e-13
2.888067e-11	 -1.578048e-11	 1.132428e-17
9.001635e-12	 -5.245917e-12	 -2.863697e-13
1.673367e-11	 9.702774e-12	 2.258150e-13
2.173182e-11	 1.266465e-11	 -1.186148e-13
1.673373e-11	 -9.702885e-12	 2.258301e-13
2.173187e-11	 -1.266478e-11	 -1.186125e-13
2.173186e-11	 -1.266481e-11	 1.186351e-13
0	 0	 3.193493e-13
9.001604e-12	 5.245879e-12	 2.863785e-13
2.366500e-11	 1.372178e-11	 4.421951e-18
0	 0	 -3.193373e-13
2.366506e-11	 -1.372193e-11	 1.083589e-17
0	 0	 3.193684e-13
9.001632e-12	 -5.245941e-12	 2.863966e-13
0	 0	 -3.193406e-13
2.173180e-11	 1.266466e-11	 1.186242e-13
9.001617e-12	 5.245866e-12	 -2.863670e-13
1.673369e-11	 9.702755e-12	 -2.258046e-13
1.673373e-11	 -9.702852e-12	 -2.258054e-13
0	 0	 3.780659e-13
1.301057e-11	 8.236070e-12	 2.673337e-13
1.301058e-11	 8.236051e-12	 -2.673233e-13
0	 0	 -3.780533e-13
0	 0	 3.780868e-13
1.301061e-11	 -8.236145e-12	 -2.673251e-13
0	 0	 -3.780579e-13
1.301061e-11	 -8.236177e-12	 2.673499e-13
1.839973e-11	 1.164755e-11	 4.141259e-18
1.839978e-11	 -1.164769e-11	 1.034864e-17
4.976741e-12	 3.661660e-12	 3.806020e-13
4.976758e-12	 -3.661718e-12	 3.806229e-13
9.253713e-12	 -6.760247e-12	 -3.083965e-13
4.976764e-12	 -3.661695e-12	 -3.805949e-13
0	 0	 4.361483e-13
9.253673e-12	 6.760174e-12	 3.084040e-13
1.308668e-11	 9.560316e-12	 3.855137e-18
1.201493e-11	 8.840005e-12	 -1.576437e-13
9.253688e-12	 6.760155e-12	 -3.083935e-13
4.976752e-12	 3.661646e-12	 -3.805896e-13
0	 0	 -4.361351e-13
0	 0	 4.361710e-13
9.253705e-12	 -6.760277e-12	 3.084213e-13
1.308672e-11	 -9.560454e-12	 9.859312e-18
1.201497e-11	 -8.840129e-12	 -1.576426e-13
0	 0	 -4.361411e-13
1.201492e-11	 8.840019e-12	 1.576522e-13
1.201496e-11	 -8.840152e-12	 1.576641e-13
0	 0	 -2.421223e-12
6.006485e-11	 -4.641489e-11	 5.585826e-18
4.247228e-11	 -3.282030e-11	 1.712075e-12
0	 0	 2.421237e-12
0	 0	 -2.421223e-12
6.006501e-11	 4.641489e-11	 1.257204e-17
4.247237e-11	 3.282029e-11	 1.712085e-12
0	 0	 2.421248e-12