# vtk DataFile Version 3.0
Unstructured Grid Example
ASCII
DATASET UNSTRUCTURED_GRID
POINTS 1641 float
-9.500000e-01	 0	 0
-9.500000e-01	 0	 3.750000e-01
-9.500000e-01	 0	 1.125000e+00
-9.500000e-01	 0	 1.500000e+00
-9.500000e-01	 0	 1.875000e+00
-9.500000e-01	 0	 2.250000e+00
-9.500000e-01	 0	 2.625000e+00
-9.500000e-01	 0	 3
-9.500000e-01	 0	 7.500000e-01
-9.341401e-01	 -1.728649e-01	 1.500000e+00
-9.341401e-01	 -1.728649e-01	 0
-9.341401e-01	 -1.728649e-01	 3.000000e+00
-9.341401e-01	 1.728649e-01	 2.250000e+00
-9.341401e-01	 1.728649e-01	 0
-9.341401e-01	 1.728649e-01	 1.500000e+00
-9.341401e-01	 1.728649e-01	 3.000000e+00
-9.341401e-01	 -1.728649e-01	 7.500000e-01
-9.341401e-01	 -1.728649e-01	 2.250000e+00
-9.341401e-01	 1.728649e-01	 7.500000e-01
-8.832989e-01	 -3.496900e-01	 1.125000e+00
-8.832989e-01	 -3.496900e-01	 1.875000e+00
-8.832989e-01	 -3.496900e-01	 2.625000e+00
-8.832989e-01	 -3.496900e-01	 2.250000e+00
-8.832989e-01	 3.496900e-01	 1.125000e+00
-8.832989e-01	 -3.496900e-01	 0
-8.832989e-01	 -3.496900e-01	 3.000000e+00
-8.832989e-01	 -3.496900e-01	 3.750000e-01
-8.832989e-01	 -3.496900e-01	 7.500000e-01
-8.832989e-01	 3.496900e-01	 3.750000e-01
-8.832989e-01	 3.496900e-01	 7.500000e-01
-8.832989e-01	 3.496900e-01	 2.250000e+00
-8.832989e-01	 3.496900e-01	 2.625000e+00
-8.832989e-01	 3.496900e-01	 0
-8.832989e-01	 3.496900e-01	 1.875000e+00
-8.832989e-01	 3.496900e-01	 3.000000e+00
-8.832989e-01	 -3.496900e-01	 1.500000e+00
-8.832989e-01	 3.496900e-01	 1.500000e+00
-8.787500e-01	 0	 2.250000e+00
-8.787500e-01	 0	 0
-8.787500e-01	 0	 1.500000e+00
-8.787500e-01	 0	 3
-8.787500e-01	 0	 7.500000e-01
-8.149622e-01	 -3.223238e-01	 7.500000e-01
-8.149622e-01	 3.223238e-01	 7.500000e-01
-8.149622e-01	 -3.223238e-01	 2.250000e+00
-8.149622e-01	 3.223238e-01	 2.250000e+00
-8.149622e-01	 -3.223238e-01	 0
-8.149622e-01	 -3.223238e-01	 1.500000e+00
-8.149622e-01	 -3.223238e-01	 3
-8.149622e-01	 3.223238e-01	 1.500000e+00
-8.149622e-01	 3.223238e-01	 0
-8.149622e-01	 3.223238e-01	 3
-8.075000e-01	 0	 7.500000e-01
-8.075000e-01	 0	 2.250000e+00
-8.075000e-01	 0	 3.750000e-01
-8.075000e-01	 0	 1.875000e+00
-8.075000e-01	 0	 2.625000e+00
-8.075000e-01	 0	 0
-8.075000e-01	 0	 1.125000e+00
-8.075000e-01	 0	 1.500000e+00
-8.075000e-01	 0	 3
-7.951457e-01	 -5.198493e-01	 7.500000e-01
-7.951457e-01	 5.198493e-01	 7.500000e-01
-7.951457e-01	 -5.198493e-01	 0
-7.951457e-01	 -5.198493e-01	 1.500000e+00
-7.951457e-01	 -5.198493e-01	 2.250000e+00
-7.951457e-01	 -5.198493e-01	 3
-7.951457e-01	 5.198493e-01	 0
-7.951457e-01	 5.198493e-01	 1.500000e+00
-7.951457e-01	 5.198493e-01	 2.250000e+00
-7.951457e-01	 5.198493e-01	 3
-7.894916e-01	 -1.451644e-01	 7.500000e-01
-7.894916e-01	 1.451644e-01	 7.500000e-01
-7.894916e-01	 1.451644e-01	 0
-7.894916e-01	 1.451644e-01	 3
-7.894916e-01	 -1.451644e-01	 0
-7.894916e-01	 -1.451644e-01	 1.500000e+00
-7.894916e-01	 -1.451644e-01	 2.250000e+00
-7.894916e-01	 -1.451644e-01	 3
-7.894916e-01	 1.451644e-01	 1.500000e+00
-7.894916e-01	 1.451644e-01	 2.250000e+00
-7.430021e-01	 -2.929055e-01	 1.500000e+00
-7.430021e-01	 2.929055e-01	 1.500000e+00
-7.430021e-01	 -2.929055e-01	 2.250000e+00
-7.430021e-01	 -2.929055e-01	 0
-7.430021e-01	 -2.929055e-01	 3.000000e+00
-7.430021e-01	 2.929055e-01	 3.750000e-01
-7.430021e-01	 -2.929055e-01	 3.750000e-01
-7.430021e-01	 -2.929055e-01	 1.125000e+00
-7.430021e-01	 -2.929055e-01	 1.875000e+00
-7.430021e-01	 -2.929055e-01	 2.625000e+00
-7.430021e-01	 2.929055e-01	 1.125000e+00
-7.430021e-01	 2.929055e-01	 0
-7.430021e-01	 2.929055e-01	 1.875000e+00
-7.430021e-01	 2.929055e-01	 2.250000e+00
-7.430021e-01	 2.929055e-01	 2.625000e+00
-7.430021e-01	 2.929055e-01	 3.000000e+00
-7.430021e-01	 2.929055e-01	 7.500000e-01
-7.430021e-01	 -2.929055e-01	 7.500000e-01
-7.362500e-01	 0	 0
-7.362500e-01	 0	 7.500000e-01
-7.362500e-01	 0	 1.500000e+00
-7.362500e-01	 0	 2.250000e+00
-7.362500e-01	 0	 3
-6.717514e-01	 -6.717514e-01	 2.625000e+00
-6.717514e-01	 6.717514e-01	 2.625000e+00
-6.717514e-01	 -6.717514e-01	 0
-6.717514e-01	 -6.717514e-01	 3.750000e-01
-6.717514e-01	 -6.717514e-01	 7.500000e-01
-6.717514e-01	 -6.717514e-01	 1.125000e+00
-6.717514e-01	 -6.717514e-01	 1.875000e+00
-6.717514e-01	 -6.717514e-01	 3.000000e+00
-6.717514e-01	 -6.717514e-01	 2.250000e+00
-6.717514e-01	 6.717514e-01	 1.500000e+00
-6.717514e-01	 6.717514e-01	 0
-6.717514e-01	 6.717514e-01	 3.750000e-01
-6.717514e-01	 6.717514e-01	 7.500000e-01
-6.717514e-01	 6.717514e-01	 1.125000e+00
-6.717514e-01	 6.717514e-01	 1.875000e+00
-6.717514e-01	 6.717514e-01	 3.000000e+00
-6.717514e-01	 -6.717514e-01	 1.500000e+00
-6.717514e-01	 6.717514e-01	 2.250000e+00
-6.682985e-01	 -2.618048e-01	 0
-6.682985e-01	 -2.618048e-01	 1.500000e+00
-6.682985e-01	 -2.618048e-01	 3
-6.682985e-01	 -2.618048e-01	 7.500000e-01
-6.682985e-01	 -2.618048e-01	 2.250000e+00
-6.682985e-01	 2.618048e-01	 7.500000e-01
-6.682985e-01	 2.618048e-01	 2.250000e+00
-6.682985e-01	 2.618048e-01	 0
-6.682985e-01	 2.618048e-01	 1.500000e+00
-6.682985e-01	 2.618048e-01	 3
-6.665713e-01	 -4.348738e-01	 2.250000e+00
-6.665713e-01	 -4.348738e-01	 7.500000e-01
-6.665713e-01	 4.348738e-01	 7.500000e-01
-6.665713e-01	 4.348738e-01	 2.250000e+00
-6.665713e-01	 -4.348738e-01	 0
-6.665713e-01	 -4.348738e-01	 3
-6.665713e-01	 4.348738e-01	 0
-6.665713e-01	 4.348738e-01	 1.500000e+00
-6.665713e-01	 4.348738e-01	 3
-6.665713e-01	 -4.348738e-01	 1.500000e+00
-6.650000e-01	 0	 7.500000e-01
-6.650000e-01	 0	 0
-6.650000e-01	 0	 3.750000e-01
-6.650000e-01	 0	 1.125000e+00
-6.650000e-01	 0	 1.500000e+00
-6.650000e-01	 0	 1.875000e+00
-6.650000e-01	 0	 2.625000e+00
-6.650000e-01	 0	 3
-6.650000e-01	 0	 2.250000e+00
-6.383743e-01	 -1.144482e-01	 0
-6.383743e-01	 -1.144482e-01	 3.000000e+00
-6.383743e-01	 -1.144482e-01	 7.500000e-01
-6.383743e-01	 -1.144482e-01	 1.500000e+00
-6.383743e-01	 -1.144482e-01	 2.250000e+00
-6.383743e-01	 1.144482e-01	 7.500000e-01
-6.383743e-01	 1.144482e-01	 1.500000e+00
-6.383743e-01	 1.144482e-01	 0
-6.383743e-01	 1.144482e-01	 2.250000e+00
-6.383743e-01	 1.144482e-01	 3.000000e+00
-6.189903e-01	 -6.189903e-01	 0
-6.189903e-01	 -6.189903e-01	 1.500000e+00
-6.189903e-01	 -6.189903e-01	 3.000000e+00
-6.189903e-01	 6.189903e-01	 2.250000e+00
-6.189903e-01	 6.189903e-01	 0
-6.189903e-01	 6.189903e-01	 1.500000e+00
-6.189903e-01	 6.189903e-01	 3.000000e+00
-6.189903e-01	 -6.189903e-01	 2.250000e+00
-6.189903e-01	 -6.189903e-01	 7.500000e-01
-6.189903e-01	 6.189903e-01	 7.500000e-01
-5.937500e-01	 0	 0
-5.937500e-01	 0	 7.500000e-01
-5.937500e-01	 0	 1.500000e+00
-5.937500e-01	 0	 2.250000e+00
-5.937500e-01	 0	 3
-5.917666e-01	 2.294176e-01	 1.875000e+00
-5.917666e-01	 2.294176e-01	 2.250000e+00
-5.917666e-01	 -2.294176e-01	 2.250000e+00
-5.917666e-01	 -2.294176e-01	 0
-5.917666e-01	 -2.294176e-01	 2.625000e+00
-5.917666e-01	 -2.294176e-01	 3
-5.917666e-01	 -2.294176e-01	 1.500000e+00
-5.917666e-01	 -2.294176e-01	 1.875000e+00
-5.917666e-01	 2.294176e-01	 0
-5.917666e-01	 2.294176e-01	 2.625000e+00
-5.917666e-01	 2.294176e-01	 3
-5.917666e-01	 2.294176e-01	 1.500000e+00
-5.917666e-01	 -2.294176e-01	 3.750000e-01
-5.917666e-01	 -2.294176e-01	 7.500000e-01
-5.917666e-01	 -2.294176e-01	 1.125000e+00
-5.917666e-01	 2.294176e-01	 7.500000e-01
-5.917666e-01	 2.294176e-01	 1.125000e+00
-5.917666e-01	 2.294176e-01	 3.750000e-01
-5.620800e-01	 5.620800e-01	 1.125000e+00
-5.620800e-01	 -5.620800e-01	 1.125000e+00
-5.620800e-01	 -5.620800e-01	 3.750000e-01
-5.620800e-01	 -5.620800e-01	 7.500000e-01
-5.620800e-01	 -5.620800e-01	 1.875000e+00
-5.620800e-01	 -5.620800e-01	 2.625000e+00
-5.620800e-01	 5.620800e-01	 3.750000e-01
-5.620800e-01	 5.620800e-01	 7.500000e-01
-5.620800e-01	 5.620800e-01	 1.875000e+00
-5.620800e-01	 -5.620800e-01	 0
-5.620800e-01	 -5.620800e-01	 1.500000e+00
-5.620800e-01	 -5.620800e-01	 2.250000e+00
-5.620800e-01	 -5.620800e-01	 3
-5.620800e-01	 5.620800e-01	 0
-5.620800e-01	 5.620800e-01	 1.500000e+00
-5.620800e-01	 5.620800e-01	 2.250000e+00
-5.620800e-01	 5.620800e-01	 3
-5.620800e-01	 5.620800e-01	 2.625000e+00
-5.250231e-01	 -3.396892e-01	 7.500000e-01
-5.250231e-01	 3.396892e-01	 1.500000e+00
-5.250231e-01	 3.396892e-01	 2.250000e+00
-5.250231e-01	 3.396892e-01	 7.500000e-01
-5.250231e-01	 -3.396892e-01	 2.250000e+00
-5.250231e-01	 -3.396892e-01	 0
-5.250231e-01	 -3.396892e-01	 1.500000e+00
-5.250231e-01	 -3.396892e-01	 3.000000e+00
-5.250231e-01	 3.396892e-01	 0
-5.250231e-01	 3.396892e-01	 3.000000e+00
-5.225000e-01	 0	 1.500000e+00
-5.225000e-01	 0	 2.250000e+00
-5.225000e-01	 0	 0
-5.225000e-01	 0	 3.750000e-01
-5.225000e-01	 0	 7.500000e-01
-5.225000e-01	 0	 1.125000e+00
-5.225000e-01	 0	 1.875000e+00
-5.225000e-01	 0	 2.625000e+00
-5.225000e-01	 0	 3
-5.198493e-01	 7.951457e-01	 7.500000e-01
-5.198493e-01	 -7.951457e-01	 7.500000e-01
-5.198493e-01	 -7.951457e-01	 0
-5.198493e-01	 -7.951457e-01	 1.500000e+00
-5.198493e-01	 -7.951457e-01	 2.250000e+00
-5.198493e-01	 -7.951457e-01	 3
-5.198493e-01	 7.951457e-01	 0
-5.198493e-01	 7.951457e-01	 1.500000e+00
-5.198493e-01	 7.951457e-01	 2.250000e+00
-5.198493e-01	 7.951457e-01	 3
-5.143216e-01	 -1.961513e-01	 2.250000e+00
-5.143216e-01	 1.961513e-01	 7.500000e-01
-5.143216e-01	 1.961513e-01	 1.500000e+00
-5.143216e-01	 -1.961513e-01	 7.500000e-01
-5.143216e-01	 -1.961513e-01	 0
-5.143216e-01	 -1.961513e-01	 3.000000e+00
-5.143216e-01	 -1.961513e-01	 1.500000e+00
-5.143216e-01	 1.961513e-01	 2.250000e+00
-5.143216e-01	 1.961513e-01	 0
-5.143216e-01	 1.961513e-01	 3.000000e+00
-5.020120e-01	 -5.020120e-01	 7.500000e-01
-5.020120e-01	 -5.020120e-01	 1.500000e+00
-5.020120e-01	 5.020120e-01	 7.500000e-01
-5.020120e-01	 5.020120e-01	 1.500000e+00
-5.020120e-01	 -5.020120e-01	 0
-5.020120e-01	 -5.020120e-01	 2.250000e+00
-5.020120e-01	 -5.020120e-01	 3.000000e+00
-5.020120e-01	 5.020120e-01	 0
-5.020120e-01	 5.020120e-01	 2.250000e+00
-5.020120e-01	 5.020120e-01	 3.000000e+00
-4.847636e-01	 8.158725e-02	 7.500000e-01
-4.847636e-01	 -8.158725e-02	 7.500000e-01
[...]
POINT_DATA 1641
SCALARS pres_adim float 1
LOOKUP_TABLE default
-7.625235e-02
-2.491707e-02
6.457258e-02
3.212142e-02
-1.095429e-02
-3.294843e-02
3.199708e-03
3.195800e-02
4.556249e-02
1.029500e+02
6.975424e+01
6.984057e+01
-8.875660e+01
-6.985201e+01
-1.028922e+02
-6.982721e+01
8.877798e+01
8.872263e+01
-8.873267e+01
1.896509e+02
1.896995e+02
1.456534e+02
1.699526e+02
-1.896986e+02
1.340236e+02
1.339656e+02
1.456752e+02
1.699090e+02
-1.456699e+02
-1.699767e+02
-1.699079e+02
-1.456955e+02
-1.339730e+02
-1.896223e+02
-1.340630e+02
1.968191e+02
-1.967896e+02
-3.231754e-02
-7.381022e-02
2.977587e-02
3.363540e-02
4.582234e-02
1.667350e+02
-1.667992e+02
1.667773e+02
-1.667319e+02
1.316035e+02
1.932092e+02
1.315475e+02
-1.931818e+02
-1.315516e+02
-1.316407e+02
4.080015e-02
-2.699322e-02
-1.310889e-02
-1.810633e-02
1.185376e-02
-5.591274e-02
4.670703e-02
1.633411e-02
3.812874e-02
2.273679e+02
-2.274884e+02
1.788299e+02
2.640270e+02
2.274652e+02
1.786797e+02
-1.786991e+02
-2.640316e+02
-2.273951e+02
-1.788036e+02
8.198083e+01
-8.193713e+01
-6.500200e+01
-6.498030e+01
6.493767e+01
9.486014e+01
8.193244e+01
6.501545e+01
-9.483344e+01
-8.195938e+01
1.807930e+02
-1.807787e+02
1.564674e+02
1.244276e+02
1.243898e+02
-1.347610e+02
1.347748e+02
1.742690e+02
1.743040e+02
1.347621e+02
-1.743083e+02
-1.243791e+02
-1.742503e+02
-1.564294e+02
-1.347834e+02
-1.244534e+02
-1.564822e+02
1.564363e+02
-3.484877e-02
3.674039e-02
-1.414059e-04
-2.152614e-02
4.536809e-02
2.125885e+02
-2.125696e+02
1.957578e+02
2.125967e+02
2.479296e+02
2.767401e+02
2.767491e+02
1.957244e+02
2.479423e+02
-2.870861e+02
-1.957293e+02
-2.125910e+02
-2.479571e+02
-2.767661e+02
-2.767954e+02
-1.956944e+02
2.870501e+02
-2.479697e+02
1.124018e+02
1.612952e+02
1.123824e+02
1.398920e+02
1.399117e+02
-1.399157e+02
-1.398800e+02
-1.123530e+02
-1.612979e+02
-1.124127e+02
2.094365e+02
2.093611e+02
-2.094486e+02
-2.093748e+02
1.660891e+02
1.659733e+02
-1.659844e+02
-2.425386e+02
-1.660740e+02
2.425407e+02
3.163433e-02
-1.310053e-02
1.011503e-02
1.057306e-02
-1.631445e-02
-3.166696e-02
2.756267e-02
5.067597e-02
-1.595011e-02
5.099031e+01
5.104546e+01
6.281269e+01
7.222435e+01
6.278018e+01
-6.277259e+01
-7.226276e+01
-5.098447e+01
-6.279423e+01
-5.096950e+01
1.923501e+02
2.820466e+02
1.923177e+02
-2.435363e+02
-1.923238e+02
-2.820784e+02
-1.922905e+02
2.435117e+02
2.434998e+02
-2.435235e+02
7.691859e-03
2.493293e-02
-3.213043e-02
-1.115556e-02
5.439893e-02
-1.306702e+02
-1.180884e+02
1.181123e+02
9.651072e+01
1.034455e+02
9.650730e+01
1.354995e+02
1.306746e+02
-9.646263e+01
-1.034266e+02
-9.650598e+01
-1.355191e+02
1.034406e+02
1.181020e+02
1.306654e+02
-1.181053e+02
-1.306913e+02
-1.034104e+02
-2.542185e+02
2.542138e+02
1.966612e+02
2.282012e+02
2.542231e+02
1.966531e+02
-1.966588e+02
-2.282152e+02
-2.542370e+02
1.817238e+02
2.636178e+02
2.282115e+02
1.816949e+02
-1.817084e+02
-2.636270e+02
-2.282233e+02
-1.816891e+02
-1.966467e+02
1.564645e+02
-1.798297e+02
-1.564558e+02
-1.564833e+02
1.564985e+02
1.277744e+02
1.798421e+02
1.277302e+02
-1.277247e+02
-1.277809e+02
-3.865479e-02
-8.826791e-03
1.802090e-02
2.157185e-02
1.915154e-02
-1.501521e-02
-3.555314e-02
2.964211e-02
5.147781e-02
-2.273675e+02
2.274438e+02
1.787562e+02
2.639688e+02
2.273543e+02
1.788830e+02
-1.788476e+02
-2.640296e+02
-2.274726e+02
-1.787067e+02
9.362136e+01
-9.360696e+01
-1.068235e+02
9.361802e+01
7.808976e+01
7.809952e+01
1.067883e+02
-9.360727e+01
-7.804429e+01
-7.807123e+01
2.033665e+02
2.344105e+02
-2.033657e+02
-2.343915e+02
1.636633e+02
2.033761e+02
1.636380e+02
-1.636610e+02
-2.033711e+02
-1.636576e+02
-3.794498e+01
3.797034e+01
3.201774e+01
4.324248e+01
3.204651e+01
3.795417e+01
-3.197138e+01
-4.331581e+01
-3.796352e+01
-3.196496e+01
-4.070164e-02
-7.050929e-03
2.391163e-02
1.100449e-02
4.304900e-02
1.881035e+02
-1.880651e+02
1.393661e+02
1.491881e+02
1.393458e+02
1.491935e+02
1.950574e+02
-1.880669e+02
-1.393787e+02
-1.492047e+02
-1.393867e+02
1.881143e+02
1.700932e+02
-1.700739e+02
-1.492012e+02
-1.950137e+02
-1.700686e+02
1.700835e+02
7.530987e+01
7.809849e+01
-6.192603e+01
-6.193726e+01
-7.813823e+01
-7.533060e+01
6.885795e+01
6.196409e+01
6.195244e+01
6.885549e+01
-5.867888e+01
-6.884363e+01
-6.885121e+01
-5.869742e+01
-7.533343e+01
7.530846e+01
5.871840e+01
5.872884e+01
-2.094350e+02
2.093538e+02
-1.660979e+02
-1.659942e+02
2.094223e+02
1.660132e+02
2.425250e+02
1.661060e+02
-2.425461e+02
-2.093554e+02
2.015489e-02
1.243984e-02
4.254732e-03
-1.957987e-02
-3.547829e-02
-2.723268e-02
-7.302661e-03
1.513250e-02
3.201633e-02
8.900770e+01
8.902037e+01
7.612030e+01
7.611693e+01
1.010192e+02
-7.610800e+01
-1.010118e+02
-8.900163e+01
-7.613366e+01
-8.899740e+01
1.330343e+02
1.114771e+02
1.330240e+02
1.516149e+02
1.114610e+02
-1.115017e+02
-1.330024e+02
-1.515554e+02
-1.115175e+02
-1.330072e+02
4.623885e+01
4.050436e+01
4.051515e+01
-4.047614e+01
-4.048590e+01
-4.624178e+01
4.623731e+01
-4.623201e+01
-5.202498e+01
5.198563e+01
1.896357e+02
1.340267e+02
1.895562e+02
1.341398e+02
1.967250e+02
-1.340776e+02
-1.340258e+02
-1.896239e+02
-1.896701e+02
-1.456879e+02
1.456930e+02
1.699375e+02
1.698722e+02
1.457374e+02
-1.967892e+02
-1.457010e+02
-1.699427e+02
-1.698968e+02
1.564959e+02
1.799135e+02
1.564715e+02
-1.564783e+02
-1.564473e+02
1.276909e+02
1.277124e+02
-1.277653e+02
-1.798533e+02
-1.277316e+02
1.595747e+01
1.797170e+01
1.405384e+01
1.595305e+01
1.406462e+01
-1.402278e+01
-1.802740e+01
-1.596666e+01
-1.402084e+01
-1.595849e+01
1.667640e+02
1.666996e+02
-1.667222e+02
-1.667664e+02
1.316009e+02
1.317101e+02
-1.316531e+02
-1.931838e+02
-1.316027e+02
1.931262e+02
9.623535e+01
-9.621674e+01
-1.050869e+02
1.051305e+02
8.250633e+01
8.689672e+01
1.090799e+02
1.051391e+02
8.689872e+01
8.249521e+01
-8.253161e+01
-8.691434e+01
-1.090276e+02
-1.050866e+02
-8.692314e+01
-8.254808e+01
9.624547e+01
-9.622231e+01
1.807629e+02
1.347693e+02
-1.347839e+02
-1.564548e+02
-1.807905e+02
1.244039e+02
1.742259e+02
1.564087e+02
1.347985e+02
1.244838e+02
-1.742594e+02
-1.742925e+02
-1.244570e+02
-1.244192e+02
1.742844e+02
1.564591e+02
-1.564225e+02
-1.347734e+02
2.551029e+01
2.456357e+01
2.969803e+01
3.083043e+01
2.969841e+01
2.751707e+01
2.551882e+01
2.457212e+01
-2.454686e+01
-2.752195e+01
-2.752722e+01
-2.551527e+01
-2.455193e+01
-2.971952e+01
-3.086206e+01
2.751476e+01
-2.551106e+01
-2.972290e+01
1.123477e+02
1.613311e+02
1.123945e+02
-1.124045e+02
-1.613226e+02
-1.123791e+02
1.399105e+02
1.398745e+02
-1.398763e+02
-1.398966e+02
5.574462e+01
6.317562e+01
7.093620e+01
5.574035e+01
-5.576592e+01
-6.316820e+01
-7.090001e+01
-5.578059e+01
6.318469e+01
-6.317251e+01
8.902119e+01
-8.899566e+01
-8.900012e+01
7.604868e+01
1.011139e+02
8.902332e+01
7.603388e+01
-7.610297e+01
-7.610768e+01
-1.010354e+02
-1.283595e+01
1.280654e+01
3.855670e+01
1.052473e+01
1.053217e+01
-3.856178e+01
3.086096e+01
3.441939e+01
3.086723e+01
3.441373e+01
1.153851e+01
1.153735e+01
-1.051295e+01
-1.155343e+01
-1.051201e+01
-1.155601e+01
-3.442176e+01
-3.086108e+01
-3.442588e+01
-3.086911e+01
-1.180960e+02
1.180967e+02
1.355977e+02
1.033864e+02
-1.034143e+02
9.642644e+01
1.033849e+02
9.644056e+01
-1.180870e+02
-9.648549e+01
-1.034088e+02
-9.647175e+01
1.307308e+02
1.181186e+02
1.307482e+02
-1.306947e+02
-1.355556e+02
-1.307025e+02
-9.360621e+01
1.069319e+02
7.798443e+01
7.797050e+01
-7.804180e+01
-7.803844e+01
9.363245e+01
9.362424e+01
-1.068667e+02
-9.360625e+01
3.687237e+01
-3.687885e+01
3.434531e+01
-1.029929e-02
-1.055710e-02
-3.436604e+01
3.310992e+01
3.972733e+01
4.129783e+01
3.973256e+01
3.687937e+01
3.435330e+01
3.311171e+01
-3.444524e-03
-7.552975e-03
3.211200e-03
-1.022295e-02
8.764541e-03
-1.048053e-02
-3.312197e+01
-3.971844e+01
-4.128036e+01
-3.971761e+01
-3.688118e+01
-3.437119e+01
-3.313146e+01
-1.064381e-02
-1.028814e+02
6.987868e+01
1.028383e+02
6.987316e+01
-6.981898e+01
-6.990711e+01
8.874232e+01
8.871405e+01
-8.877078e+01
-8.871193e+01
7.541244e+01
-7.535986e+01
7.824019e+01
7.541785e+01
-7.535398e+01
-6.884694e+01
-7.817744e+01
6.187166e+01
5.861696e+01
6.887038e+01
6.886729e+01
5.859662e+01
-5.866445e+01
-5.866649e+01
-6.191421e+01
6.188512e+01
-6.191503e+01
-6.884920e+01
8.192923e+01
6.500896e+01
6.499485e+01
-8.197254e+01
9.481363e+01
8.195107e+01
-6.497082e+01
-9.483700e+01
-8.192298e+01
-6.504018e+01
2.083341e+01
-2.084885e+01
-2.315552e+01
3.860170e+01
3.082880e+01
3.442396e+01
3.082587e+01
2.083769e+01
1.907899e+01
2.316172e+01
1.908510e+01
6.384245e+00
7.762923e+00
6.953127e+00
6.391610e+00
6.951560e+00
-6.974713e+00
-6.382190e+00
-6.379355e+00
-6.974708e+00
-1.908448e+01
-2.085006e+01
-1.908831e+01
-3.084894e+01
-3.442174e+01
-3.085726e+01
-3.857006e+01
3.441811e+01
-7.771003e+00
-3.442124e+01
4.625051e+01
5.210503e+01
4.042028e+01
4.040112e+01
4.624854e+01
-5.205475e+01
-4.623800e+01
-4.045368e+01
-4.045981e+01
-4.623469e+01
5.095044e+01
6.280038e+01
5.091930e+01
-5.095328e+01
-5.098570e+01
-7.229690e+01
-6.277511e+01
-6.280536e+01
6.279000e+01
7.231028e+01
-1.026684e+01
2.975145e+01
3.090702e+01
8.762123e+00
8.770727e+00
9.245410e+00
-8.781135e+00
-2.549467e+01
2.450828e+01
2.752218e+01
2.752474e+01
2.547421e+01
2.450060e+01
2.975695e+01
8.556456e+00
8.564315e+00
9.243805e+00
9.890160e+00
1.026892e+01
-8.555683e+00
-9.264721e+00
-9.896026e+00
-9.265255e+00
-8.781433e+00
-8.554049e+00
-2.752224e+01
-2.452632e+01
-2.973427e+01
-3.087743e+01
-2.972821e+01
-2.752126e+01
-2.549707e+01
-2.453158e+01
2.547517e+01
9.892354e+00
-9.897148e+00
3.797231e+01
-3.796897e+01
3.191986e+01
4.338740e+01
3.797377e+01
3.188616e+01
-3.194036e+01
-4.335918e+01
-3.194933e+01
-3.795532e+01
1.596356e+01
1.154311e+01
-2.330922e+00
-1.154999e+01
-1.804829e+01
1.398618e+01
1.806365e+01
1.596366e+01
1.397248e+01
1.285326e+01
1.049003e+01
1.049029e+01
1.154178e+01
6.954223e+00
2.197843e+00
2.308936e+00
2.207053e+00
2.535262e+00
2.308659e+00
-2.192030e+00
-2.531384e+00
-2.331658e+00
-2.186533e+00
-6.370631e+00
-6.370209e+00
-7.769682e+00
-6.970558e+00
-1.154931e+01
-1.049234e+01
-1.049478e+01
-1.284203e+01
-1.399529e+01
-1.596005e+01
-1.399946e+01
-1.596379e+01
6.372266e+00
7.777836e+00
6.380033e+00
6.953022e+00
-6.969982e+00
8.962821e-03
1.046299e-02
3.076620e-03
2.427512e-03
-8.916786e-03
-9.347075e-03
6.112059e-02
3.489716e-02
-8.627800e-02
-5.880215e-02
5.922882e-03
4.185395e-02
9.953977e-03
-2.822156e-02
-4.162611e-02
4.203063e-02
5.874702e-02
-5.440493e-02
-3.218895e-02
-4.044417e-02
-3.148570e-02
3.582722e-02
1.995755e-02
1.605311e-02
-4.791915e-03
3.631758e-02
-5.647003e-02
-3.246001e-02
-4.362183e-02
1.259016e-02
-2.076370e-02
-6.279050e-03
3.055368e-02
-5.884336e-02
-9.461619e-03
-1.177060e-02
-1.049935e-02
4.128791e-03
2.098432e-02
3.972428e-02
-3.499919e-02
-7.372615e-02
2.545363e-02
-3.547439e-02
1.534732e-03
4.526556e-02
1.891067e-02
-8.523813e-02
5.351403e-02
1.460999e-02
-4.355262e-02
-2.867194e-02
6.805962e-03
4.109951e-02
5.220684e-02
-4.998292e-02
-8.448404e-02
5.550724e-02
8.612420e-03
-4.831228e-02
9.011544e-03
-7.632085e-02
-4.202097e-02
-2.721135e-02
5.634679e-03
3.349974e-02
4.483625e-02
3.579406e-02
3.303620e-03
-3.749761e-02
-5.896916e-02
5.333496e-03
1.316887e-02
-9.095052e-04
-1.009207e-03
4.463840e-03
-9.839205e-03
-1.060348e-02
-5.856730e-03
-2.205443e-03
2.136171e-02
-4.021157e-03
2.284431e-02
-3.452586e-03
-6.669287e-03
4.695986e-02
2.786790e-02
-8.268566e-03
-4.439389e-02
-5.645520e-02
-3.668473e-02
-3.195000e-03
3.044576e-02
4.586361e-02
5.357035e-02
-1.359461e-02
5.094339e-02
-3.808181e-03
-7.061717e-02
5.502198e-02
3.010133e-02
-2.064892e-02
-6.150871e-02
-4.684911e-02
3.348953e-02
4.352685e-02
-7.068513e-02
-2.379152e-03
5.417320e-02
-2.641848e-02
-6.109620e-02
-3.166864e-04
3.140710e-02
6.109388e-03
4.966372e-02
1.810044e-02
-4.996199e-02
-3.382094e-02
-1.372914e-02
1.003610e-02
2.910156e-03
-3.403574e-02
4.461944e-02
-3.979840e-02
-2.960890e-03
1.294448e-02
-2.618224e-02
4.034512e-02
-2.508362e-02
2.734989e-02
-5.447969e-02
3.020970e-03
4.526336e-02
-2.646760e-02
-4.499283e-02
1.966124e-02
-5.051912e-02
3.827387e-02
5.195213e-02
-7.924464e-02
2.650550e-02
-5.005651e-02
3.718703e-02
-3.738535e-03
-1.353414e-02
5.756861e-02
7.475629e-02
2.699170e-02
-4.470671e-02
-8.217519e-02
-1.671230e-02
-1.308347e-02
-6.492758e-03
8.491573e-03
-1.020131e-02
-8.006228e-03
-5.300708e-03
-6.974431e+00
-2.529567e+00
6.400219e+00
6.961632e+00
7.774185e+00
6.403263e+00
-6.384154e+00
-7.772704e+00
-6.373245e+00
2.542431e+00
-1.595948e+01
-1.405343e+01
-1.799838e+01
-1.596473e+01
-1.405611e+01
-1.052619e+01
-1.052000e+01
-2.194575e+00
-2.330198e+00
-2.331228e+00
-2.184906e+00
2.208357e+00
2.314247e+00
2.214193e+00
2.315479e+00
6.960724e+00
1.154511e+01
1.154425e+01
1.054304e+01
1.054540e+01
1.407165e+01
1.796647e+01
1.595494e+01
1.407524e+01
1.595459e+01
-1.155647e+01
-1.155389e+01
-6.975562e+00
1.281310e+01
-1.282670e+01
-3.795662e+01
-3.200871e+01
-4.328584e+01
-3.202859e+01
3.203270e+01
4.322653e+01
3.794679e+01
3.204080e+01
-3.795301e+01
3.794333e+01
-2.550697e+01
-9.902190e+00
9.254481e+00
1.028387e+01
2.552263e+01
-2.454665e+01
-2.752583e+01
-2.973327e+01
-3.087995e+01
-2.973825e+01
-2.753251e+01
-2.550317e+01
-2.453765e+01
-9.264899e+00
-8.553629e+00
-9.900392e+00
-1.027295e+01
-9.265614e+00
-8.772640e+00
-8.543206e+00
8.571353e+00
9.255142e+00
8.778528e+00
8.574677e+00
8.779700e+00
2.752067e+01
2.970427e+01
2.457157e+01
2.970321e+01
3.084098e+01
2.751726e+01
2.552385e+01
2.457770e+01
-8.778455e+00
9.904535e+00
9.903630e+00
6.276434e+01
7.221881e+01
-6.279214e+01
-7.225721e+01
-6.277311e+01
-5.099687e+01
-5.103780e+01
5.102373e+01
6.277355e+01
5.101884e+01
-4.625058e+01
-4.046805e+01
-4.045898e+01
-4.623948e+01
-5.206417e+01
4.623564e+01
4.049960e+01
4.051098e+01
5.199326e+01
4.623019e+01
-1.907080e+01
-1.905908e+01
-3.442898e+01
-6.968223e+00
7.792335e+00
6.964985e+00
3.442473e+01
-3.861432e+01
-3.083429e+01
-3.443407e+01
-3.081913e+01
-2.085210e+01
-2.318160e+01
-2.085295e+01
-6.968674e+00
6.388597e+00
6.390533e+00
6.964602e+00
1.909244e+01
2.084758e+01
2.084629e+01
1.909263e+01
2.318358e+01
3.086418e+01
3.442082e+01
3.086771e+01
3.857918e+01
-6.371958e+00
-7.768443e+00
-6.365373e+00
-6.497007e+01
-9.486417e+01
-8.191804e+01
-6.503517e+01
9.487791e+01
8.193847e+01
-8.196819e+01
6.500614e+01
6.497184e+01
8.192258e+01
-6.191458e+01
-6.885005e+01
6.193990e+01
-6.191376e+01
-5.867024e+01
-5.865928e+01
5.869665e+01
6.884879e+01
6.883714e+01
5.871953e+01
6.194970e+01
-7.819246e+01
-6.886569e+01
-7.537852e+01
7.530051e+01
7.810344e+01
-7.536567e+01
7.530987e+01
-8.877021e+01
-8.870494e+01
8.871716e+01
8.873645e+01
-6.979748e+01
-6.987554e+01
6.984040e+01
1.029784e+02
6.979114e+01
-1.029392e+02
6.103519e-03
-8.056570e-05
6.660972e-03
-3.308710e+01
-3.976130e+01
-4.134094e+01
-3.976618e+01
-3.688856e+01
-3.433207e+01
-3.307282e+01
8.779805e-04
1.341276e-02
1.294257e-02
3.311223e+01
3.975192e+01
4.132572e+01
3.974934e+01
3.688347e+01
3.435196e+01
3.311042e+01
-3.434026e+01
6.112508e-04
1.809604e-02
3.098119e-03
3.435380e+01
-3.688678e+01
3.688582e+01
-9.362626e+01
-1.068821e+02
9.359144e+01
9.360939e+01
-7.804037e+01
-7.802648e+01
7.805677e+01
7.809073e+01
1.067919e+02
-9.360864e+01
-1.355644e+02
-1.307231e+02
-1.307016e+02
1.181020e+02
1.306780e+02
1.306475e+02
-9.648063e+01
-1.034064e+02
-9.645867e+01
-1.180942e+02
9.646978e+01
1.034325e+02
9.651704e+01
-1.034100e+02
1.034156e+02
1.355033e+02
1.180725e+02
-1.181145e+02
-1.154642e+01
1.155366e+01
-3.081694e+01
-3.442511e+01
-3.080832e+01
-3.442670e+01
3.443149e+01
3.083368e+01
3.443117e+01
3.082644e+01
-3.861880e+01
-1.050272e+01
-1.154257e+01
-1.050330e+01
1.051033e+01
1.050318e+01
1.155635e+01
3.863015e+01
-1.282487e+01
1.286804e+01
-1.011411e+02
-7.604215e+01
-7.601323e+01
7.607476e+01
1.010419e+02
8.899770e+01
7.609429e+01
-8.902742e+01
-8.900945e+01
8.901275e+01
-6.318785e+01
6.318012e+01
-5.569603e+01
-6.318313e+01
-7.101334e+01
-5.567767e+01
5.572476e+01
6.318478e+01
7.096931e+01
5.572339e+01
-1.398887e+02
-1.399127e+02
1.399067e+02
1.398646e+02
-1.123996e+02
-1.613190e+02
-1.123681e+02
1.123587e+02
1.613006e+02
1.124177e+02
-2.752228e+01
-2.973604e+01
-2.548757e+01
2.548607e+01
2.753266e+01
2.977182e+01
-2.973816e+01
-3.088699e+01
-2.451689e+01
-2.751685e+01
-2.548616e+01
-2.451739e+01
2.452132e+01
2.977026e+01
3.092740e+01
2.753526e+01
2.548000e+01
2.450833e+01
-1.347752e+02
-1.564400e+02
1.564687e+02
1.743087e+02
-1.244536e+02
-1.244124e+02
-1.742621e+02
-1.742900e+02
1.243850e+02
1.742555e+02
1.564146e+02
1.347780e+02
1.244535e+02
-1.807737e+02
-1.564675e+02
-1.347870e+02
1.347600e+02
1.807987e+02
-9.624354e+01
9.623287e+01
-8.243599e+01
-8.684914e+01
-1.091767e+02
-1.052058e+02
-8.683569e+01
-8.241552e+01
8.246339e+01
8.686860e+01
1.091107e+02
1.051497e+02
8.686826e+01
8.246225e+01
1.051577e+02
-1.051961e+02
-9.623691e+01
9.623919e+01
1.932144e+02
-1.316509e+02
-1.931564e+02
-1.315998e+02
1.315583e+02
1.316370e+02
-1.667761e+02
-1.667441e+02
1.667173e+02
1.667835e+02
-1.595454e+01
-1.800550e+01
-1.401931e+01
-1.594787e+01
-1.402808e+01
1.400628e+01
1.807267e+01
1.597531e+01
1.399198e+01
1.597124e+01
-1.277077e+02
-1.799231e+02
-1.276495e+02
1.276867e+02
1.277408e+02
-1.564674e+02
-1.565066e+02
1.798491e+02
1.564554e+02
1.564920e+02
-1.699193e+02
-1.699520e+02
-1.457087e+02
-1.967583e+02
1.456676e+02
1.699607e+02
1.698931e+02
1.456860e+02
-1.896245e+02
-1.896553e+02
-1.456929e+02
-1.340761e+02
-1.340234e+02
1.968245e+02
1.339808e+02
1.896401e+02
1.340597e+02
1.897045e+02
5.212629e+01
-5.208190e+01
-4.623955e+01
4.625335e+01
-4.623120e+01
-4.042941e+01
-4.043340e+01
4.042167e+01
4.040305e+01
4.625551e+01
-1.330307e+02
-1.113938e+02
-1.330239e+02
-1.517146e+02
-1.113723e+02
1.114171e+02
1.330252e+02
1.516390e+02
1.114169e+02
1.330186e+02
-8.901548e+01
-7.600912e+01
-1.011600e+02
-8.900788e+01
-7.600597e+01
1.011462e+02
7.602144e+01
7.600205e+01
8.902045e+01
8.901931e+01
-1.372705e-02
-8.221360e-03
1.088346e-02
3.010460e-02
4.091899e-02
3.634658e-02
1.579980e-02
-1.453572e-02
-2.629491e-02
-2.093803e+02
-2.424975e+02
1.659828e+02
2.425244e+02
1.660757e+02
2.094436e+02
-1.660940e+02
-1.659908e+02
2.093797e+02
-2.094531e+02
5.861294e+01
5.858874e+01
7.542682e+01
-7.538153e+01
-5.862458e+01
-6.885526e+01
-6.884032e+01
-5.863606e+01
6.187660e+01
6.886637e+01
6.186547e+01
6.886887e+01
-7.539418e+01
-7.821862e+01
-6.188609e+01
-6.188710e+01
7.825941e+01
7.542194e+01
1.700859e+02
-1.700858e+02
-1.491481e+02
-1.951213e+02
-1.700929e+02
1.700856e+02
1.881124e+02
-1.392977e+02
-1.491375e+02
-1.392807e+02
-1.881570e+02
1.491590e+02
1.950653e+02
1.393111e+02
1.491576e+02
1.393053e+02
-1.881464e+02
1.881157e+02
-2.272398e-02
1.310635e-02
-3.398676e-02
1.564922e-02
4.601511e-02
-3.197183e+01
-4.330873e+01
-3.794319e+01
-3.198172e+01
3.797165e+01
3.192795e+01
4.339029e+01
3.191568e+01
3.797479e+01
-3.795103e+01
-1.636211e+02
-2.033836e+02
-1.636092e+02
1.636236e+02
2.033828e+02
1.636100e+02
-2.033745e+02
-2.344238e+02
2.033741e+02
2.344012e+02
-7.799130e+01
-7.801123e+01
-9.359476e+01
1.069480e+02
7.798127e+01
7.795381e+01
9.362163e+01
-1.069145e+02
-9.361722e+01
9.362424e+01
-1.788712e+02
-2.639244e+02
-2.274858e+02
-1.787417e+02
1.787179e+02
2.639987e+02
2.274016e+02
1.788287e+02
2.274785e+02
-2.273952e+02
-2.998795e-02
-1.400990e-02
1.645295e-02
3.406199e-02
3.725441e-02
-1.767435e-02
-2.787965e-02
4.411330e-02
9.830022e-03
-1.276528e+02
-1.276907e+02
1.276926e+02
1.799262e+02
1.276365e+02
1.564920e+02
-1.564895e+02
-1.799471e+02
-1.564559e+02
1.564653e+02
-1.966630e+02
-1.817138e+02
-2.635790e+02
-2.282291e+02
-1.817041e+02
1.817059e+02
2.635913e+02
2.282351e+02
1.816851e+02
-1.966681e+02
-2.282161e+02
-2.542045e+02
1.966620e+02
1.966645e+02
2.282161e+02
2.542165e+02
2.542023e+02
-2.541900e+02
-1.033845e+02
-1.181057e+02
-1.307392e+02
1.307353e+02
1.180976e+02
1.033837e+02
-1.355921e+02
-9.643445e+01
-1.033918e+02
-9.647133e+01
1.356112e+02
1.307505e+02
9.644417e+01
1.033703e+02
9.641066e+01
1.181053e+02
-1.180734e+02
-1.307071e+02
-3.345504e-02
1.813228e-02
3.859778e-02
2.220877e-03
-1.698517e-02
-2.435202e+02
2.435207e+02
2.435488e+02
-1.923660e+02
-2.819669e+02
-1.923559e+02