# vtk DataFile Version 3.0
Unstructured Grid Example
ASCII
DATASET UNSTRUCTURED_GRID
POINTS 832 float
-1	 0	 0
-1	 0	 3.750000e-01
-1	 0	 7.500000e-01
-1	 0	 1.125000e+00
-1	 0	 1.500000e+00
-1	 0	 1.875000e+00
-1	 0	 2.250000e+00
-1	 0	 2.625000e+00
-1	 0	 3
-9.875000e-01	 0	 0
-9.875000e-01	 0	 1.500000e+00
-9.875000e-01	 0	 3
-9.875000e-01	 0	 2.250000e+00
-9.875000e-01	 0	 7.500000e-01
-9.833054e-01	 -1.819631e-01	 7.500000e-01
-9.833054e-01	 -1.819631e-01	 0
-9.833054e-01	 -1.819631e-01	 1.500000e+00
-9.833054e-01	 -1.819631e-01	 3.000000e+00
-9.833054e-01	 1.819631e-01	 2.250000e+00
-9.833054e-01	 1.819631e-01	 0
-9.833054e-01	 1.819631e-01	 1.500000e+00
-9.833054e-01	 1.819631e-01	 3.000000e+00
-9.833054e-01	 1.819631e-01	 7.500000e-01
-9.833054e-01	 -1.819631e-01	 2.250000e+00
-9.750000e-01	 0	 7.500000e-01
-9.750000e-01	 0	 1.125000e+00
-9.750000e-01	 0	 0
-9.750000e-01	 0	 3.750000e-01
-9.750000e-01	 0	 1.875000e+00
-9.750000e-01	 0	 2.625000e+00
-9.750000e-01	 0	 3
-9.750000e-01	 0	 1.500000e+00
-9.750000e-01	 0	 2.250000e+00
-9.625000e-01	 0	 1.500000e+00
-9.625000e-01	 0	 2.250000e+00
-9.625000e-01	 0	 0
-9.625000e-01	 0	 7.500000e-01
-9.625000e-01	 0	 3
-9.587227e-01	 -1.774140e-01	 0
-9.587227e-01	 -1.774140e-01	 3.000000e+00
-9.587227e-01	 -1.774140e-01	 1.500000e+00
-9.587227e-01	 1.774140e-01	 0
-9.587227e-01	 1.774140e-01	 3.000000e+00
-9.587227e-01	 1.774140e-01	 1.500000e+00
-9.587227e-01	 1.774140e-01	 7.500000e-01
-9.587227e-01	 -1.774140e-01	 7.500000e-01
-9.587227e-01	 -1.774140e-01	 2.250000e+00
-9.587227e-01	 1.774140e-01	 2.250000e+00
-9.500000e-01	 0	 0
-9.500000e-01	 0	 3.750000e-01
-9.500000e-01	 0	 1.125000e+00
-9.500000e-01	 0	 1.500000e+00
-9.500000e-01	 0	 1.875000e+00
-9.500000e-01	 0	 2.250000e+00
-9.500000e-01	 0	 2.625000e+00
-9.500000e-01	 0	 3
-9.500000e-01	 0	 7.500000e-01
-9.341401e-01	 -1.728649e-01	 1.500000e+00
-9.341401e-01	 -1.728649e-01	 0
-9.341401e-01	 -1.728649e-01	 3.000000e+00
-9.341401e-01	 1.728649e-01	 2.250000e+00
-9.341401e-01	 1.728649e-01	 0
-9.341401e-01	 1.728649e-01	 1.500000e+00
-9.341401e-01	 1.728649e-01	 3.000000e+00
-9.341401e-01	 -1.728649e-01	 7.500000e-01
-9.341401e-01	 -1.728649e-01	 2.250000e+00
-9.341401e-01	 1.728649e-01	 7.500000e-01
-9.297883e-01	 -3.680947e-01	 1.125000e+00
-9.297883e-01	 -3.680947e-01	 0
-9.297883e-01	 -3.680947e-01	 7.500000e-01
-9.297883e-01	 -3.680947e-01	 1.500000e+00
-9.297883e-01	 -3.680947e-01	 1.875000e+00
-9.297883e-01	 -3.680947e-01	 2.250000e+00
-9.297883e-01	 -3.680947e-01	 2.625000e+00
-9.297883e-01	 -3.680947e-01	 3.000000e+00
-9.297883e-01	 -3.680947e-01	 3.750000e-01
-9.297883e-01	 3.680947e-01	 3.750000e-01
-9.297883e-01	 3.680947e-01	 2.250000e+00
-9.297883e-01	 3.680947e-01	 2.625000e+00
-9.297883e-01	 3.680947e-01	 0
-9.297883e-01	 3.680947e-01	 7.500000e-01
-9.297883e-01	 3.680947e-01	 1.500000e+00
-9.297883e-01	 3.680947e-01	 1.875000e+00
-9.297883e-01	 3.680947e-01	 3.000000e+00
-9.297883e-01	 3.680947e-01	 1.125000e+00
-9.181659e-01	 3.634935e-01	 7.500000e-01
-9.181659e-01	 -3.634935e-01	 0
-9.181659e-01	 -3.634935e-01	 7.500000e-01
-9.181659e-01	 -3.634935e-01	 2.250000e+00
-9.181659e-01	 -3.634935e-01	 3
-9.181659e-01	 3.634935e-01	 0
-9.181659e-01	 3.634935e-01	 2.250000e+00
-9.181659e-01	 3.634935e-01	 3
-9.181659e-01	 -3.634935e-01	 1.500000e+00
-9.181659e-01	 3.634935e-01	 1.500000e+00
-9.065436e-01	 -3.588923e-01	 1.125000e+00
-9.065436e-01	 -3.588923e-01	 2.625000e+00
-9.065436e-01	 -3.588923e-01	 0
-9.065436e-01	 -3.588923e-01	 3.750000e-01
-9.065436e-01	 -3.588923e-01	 1.500000e+00
-9.065436e-01	 -3.588923e-01	 3
-9.065436e-01	 3.588923e-01	 2.625000e+00
-9.065436e-01	 3.588923e-01	 1.125000e+00
-9.065436e-01	 3.588923e-01	 0
-9.065436e-01	 3.588923e-01	 3.750000e-01
-9.065436e-01	 3.588923e-01	 3
-9.065436e-01	 -3.588923e-01	 7.500000e-01
-9.065436e-01	 -3.588923e-01	 1.875000e+00
-9.065436e-01	 3.588923e-01	 1.875000e+00
-9.065436e-01	 3.588923e-01	 1.500000e+00
-9.065436e-01	 -3.588923e-01	 2.250000e+00
-9.065436e-01	 3.588923e-01	 7.500000e-01
-9.065436e-01	 3.588923e-01	 2.250000e+00
-8.949212e-01	 3.542912e-01	 1.500000e+00
-8.949212e-01	 -3.542912e-01	 1.500000e+00
-8.949212e-01	 -3.542912e-01	 0
-8.949212e-01	 -3.542912e-01	 3.000000e+00
-8.949212e-01	 3.542912e-01	 0
-8.949212e-01	 3.542912e-01	 3.000000e+00
-8.949212e-01	 -3.542912e-01	 2.250000e+00
-8.949212e-01	 -3.542912e-01	 7.500000e-01
-8.949212e-01	 3.542912e-01	 2.250000e+00
-8.949212e-01	 3.542912e-01	 7.500000e-01
-8.832989e-01	 -3.496900e-01	 1.125000e+00
-8.832989e-01	 -3.496900e-01	 1.875000e+00
-8.832989e-01	 -3.496900e-01	 2.625000e+00
-8.832989e-01	 -3.496900e-01	 2.250000e+00
-8.832989e-01	 3.496900e-01	 1.125000e+00
-8.832989e-01	 -3.496900e-01	 0
-8.832989e-01	 -3.496900e-01	 3.000000e+00
-8.832989e-01	 -3.496900e-01	 3.750000e-01
-8.832989e-01	 -3.496900e-01	 7.500000e-01
-8.832989e-01	 3.496900e-01	 3.750000e-01
-8.832989e-01	 3.496900e-01	 7.500000e-01
-8.832989e-01	 3.496900e-01	 2.250000e+00
-8.832989e-01	 3.496900e-01	 2.625000e+00
-8.832989e-01	 3.496900e-01	 0
-8.832989e-01	 3.496900e-01	 1.875000e+00
-8.832989e-01	 3.496900e-01	 3.000000e+00
-8.832989e-01	 -3.496900e-01	 1.500000e+00
-8.832989e-01	 3.496900e-01	 1.500000e+00
-8.369955e-01	 -5.472098e-01	 0
-8.369955e-01	 -5.472098e-01	 7.500000e-01
-8.369955e-01	 -5.472098e-01	 1.500000e+00
-8.369955e-01	 -5.472098e-01	 2.250000e+00
-8.369955e-01	 -5.472098e-01	 3
-8.369955e-01	 5.472098e-01	 0
-8.369955e-01	 5.472098e-01	 7.500000e-01
-8.369955e-01	 5.472098e-01	 1.500000e+00
-8.369955e-01	 5.472098e-01	 2.250000e+00
-8.369955e-01	 5.472098e-01	 3
-8.160706e-01	 -5.335295e-01	 7.500000e-01
-8.160706e-01	 5.335295e-01	 7.500000e-01
-8.160706e-01	 -5.335295e-01	 1.500000e+00
-8.160706e-01	 -5.335295e-01	 2.250000e+00
-8.160706e-01	 5.335295e-01	 1.500000e+00
-8.160706e-01	 5.335295e-01	 2.250000e+00
-8.160706e-01	 -5.335295e-01	 0
-8.160706e-01	 -5.335295e-01	 3.000000e+00
-8.160706e-01	 5.335295e-01	 0
-8.160706e-01	 5.335295e-01	 3.000000e+00
-7.951457e-01	 -5.198493e-01	 7.500000e-01
-7.951457e-01	 5.198493e-01	 7.500000e-01
-7.951457e-01	 -5.198493e-01	 0
-7.951457e-01	 -5.198493e-01	 1.500000e+00
-7.951457e-01	 -5.198493e-01	 2.250000e+00
-7.951457e-01	 -5.198493e-01	 3
-7.951457e-01	 5.198493e-01	 0
-7.951457e-01	 5.198493e-01	 1.500000e+00
-7.951457e-01	 5.198493e-01	 2.250000e+00
-7.951457e-01	 5.198493e-01	 3
-7.071068e-01	 -7.071068e-01	 0
-7.071068e-01	 -7.071068e-01	 3.750000e-01
-7.071068e-01	 -7.071068e-01	 7.500000e-01
-7.071068e-01	 -7.071068e-01	 1.125000e+00
-7.071068e-01	 -7.071068e-01	 1.500000e+00
-7.071068e-01	 -7.071068e-01	 1.875000e+00
-7.071068e-01	 -7.071068e-01	 2.250000e+00
-7.071068e-01	 -7.071068e-01	 2.625000e+00
-7.071068e-01	 -7.071068e-01	 3.000000e+00
-7.071068e-01	 7.071068e-01	 0
-7.071068e-01	 7.071068e-01	 3.750000e-01
-7.071068e-01	 7.071068e-01	 7.500000e-01
-7.071068e-01	 7.071068e-01	 1.125000e+00
-7.071068e-01	 7.071068e-01	 1.500000e+00
-7.071068e-01	 7.071068e-01	 1.875000e+00
-7.071068e-01	 7.071068e-01	 2.250000e+00
-7.071068e-01	 7.071068e-01	 2.625000e+00
-7.071068e-01	 7.071068e-01	 3.000000e+00
-6.982679e-01	 -6.982679e-01	 7.500000e-01
-6.982679e-01	 6.982679e-01	 7.500000e-01
-6.982679e-01	 -6.982679e-01	 0
-6.982679e-01	 -6.982679e-01	 2.250000e+00
-6.982679e-01	 -6.982679e-01	 3.000000e+00
-6.982679e-01	 6.982679e-01	 0
-6.982679e-01	 6.982679e-01	 2.250000e+00
-6.982679e-01	 6.982679e-01	 3.000000e+00
-6.982679e-01	 -6.982679e-01	 1.500000e+00
-6.982679e-01	 6.982679e-01	 1.500000e+00
-6.894291e-01	 -6.894291e-01	 3.750000e-01
-6.894291e-01	 -6.894291e-01	 2.625000e+00
-6.894291e-01	 -6.894291e-01	 0
-6.894291e-01	 -6.894291e-01	 1.500000e+00
-6.894291e-01	 -6.894291e-01	 2.250000e+00
-6.894291e-01	 -6.894291e-01	 3.000000e+00
-6.894291e-01	 6.894291e-01	 3.750000e-01
-6.894291e-01	 6.894291e-01	 2.625000e+00
-6.894291e-01	 -6.894291e-01	 1.875000e+00
-6.894291e-01	 6.894291e-01	 1.875000e+00
-6.894291e-01	 -6.894291e-01	 7.500000e-01
-6.894291e-01	 -6.894291e-01	 1.125000e+00
-6.894291e-01	 6.894291e-01	 0
-6.894291e-01	 6.894291e-01	 1.500000e+00
-6.894291e-01	 6.894291e-01	 2.250000e+00
-6.894291e-01	 6.894291e-01	 3.000000e+00
-6.894291e-01	 6.894291e-01	 7.500000e-01
-6.894291e-01	 6.894291e-01	 1.125000e+00
-6.805903e-01	 6.805903e-01	 7.500000e-01
-6.805903e-01	 -6.805903e-01	 7.500000e-01
-6.805903e-01	 -6.805903e-01	 0
-6.805903e-01	 -6.805903e-01	 1.500000e+00
-6.805903e-01	 -6.805903e-01	 3.000000e+00
-6.805903e-01	 6.805903e-01	 0
-6.805903e-01	 6.805903e-01	 1.500000e+00
-6.805903e-01	 6.805903e-01	 3.000000e+00
-6.805903e-01	 6.805903e-01	 2.250000e+00
-6.805903e-01	 -6.805903e-01	 2.250000e+00
-6.717514e-01	 -6.717514e-01	 2.625000e+00
-6.717514e-01	 6.717514e-01	 2.625000e+00
-6.717514e-01	 -6.717514e-01	 0
-6.717514e-01	 -6.717514e-01	 3.750000e-01
-6.717514e-01	 -6.717514e-01	 7.500000e-01
-6.717514e-01	 -6.717514e-01	 1.125000e+00
-6.717514e-01	 -6.717514e-01	 1.875000e+00
-6.717514e-01	 -6.717514e-01	 3.000000e+00
-6.717514e-01	 -6.717514e-01	 2.250000e+00
-6.717514e-01	 6.717514e-01	 1.500000e+00
-6.717514e-01	 6.717514e-01	 0
-6.717514e-01	 6.717514e-01	 3.750000e-01
-6.717514e-01	 6.717514e-01	 7.500000e-01
-6.717514e-01	 6.717514e-01	 1.125000e+00
-6.717514e-01	 6.717514e-01	 1.875000e+00
-6.717514e-01	 6.717514e-01	 3.000000e+00
-6.717514e-01	 -6.717514e-01	 1.500000e+00
-6.717514e-01	 6.717514e-01	 2.250000e+00
-5.472098e-01	 -8.369955e-01	 0
-5.472098e-01	 -8.369955e-01	 7.500000e-01
-5.472098e-01	 -8.369955e-01	 1.500000e+00
-5.472098e-01	 -8.369955e-01	 2.250000e+00
-5.472098e-01	 -8.369955e-01	 3
-5.472098e-01	 8.369955e-01	 0
-5.472098e-01	 8.369955e-01	 7.500000e-01
-5.472098e-01	 8.369955e-01	 1.500000e+00
-5.472098e-01	 8.369955e-01	 2.250000e+00
-5.472098e-01	 8.369955e-01	 3
-5.335295e-01	 -8.160706e-01	 1.500000e+00
-5.335295e-01	 -8.160706e-01	 2.250000e+00
-5.335295e-01	 8.160706e-01	 0
-5.335295e-01	 8.160706e-01	 3.000000e+00
[...]
POINT_DATA 832
VECTORS displacement float
0	 0	 4.166635e-15
1.383221e-14	 -3.286492e-15	 3.812121e-15
2.531803e-14	 -6.117111e-15	 2.944939e-15
3.338973e-14	 -7.936355e-15	 1.577102e-15
3.580229e-14	 -8.653421e-15	 -3.137315e-18
3.338612e-14	 -7.939442e-15	 -1.582942e-15
2.531371e-14	 -6.121681e-15	 -2.950166e-15
1.382860e-14	 -3.289580e-15	 -3.816736e-15
0	 0	 -4.170814e-15
0	 0	 3.676991e-15
3.587860e-14	 -9.920370e-15	 -3.040994e-18
0	 0	 -3.681363e-15
2.536921e-14	 -7.017517e-15	 -2.604144e-15
2.537353e-14	 -7.012868e-15	 2.598917e-15
1.055085e-14	 -7.021886e-15	 1.104241e-15
0	 0	 1.563629e-15
1.491485e-14	 -9.932666e-15	 -3.411759e-18
0	 0	 -1.566690e-15
3.327532e-14	 -7.860274e-15	 -3.998151e-15
0	 0	 5.647406e-15
4.705850e-14	 -1.111356e-14	 -2.777391e-18
0	 0	 -5.652526e-15
3.327815e-14	 -7.855843e-15	 3.992813e-15
1.054296e-14	 -7.026062e-15	 -1.109184e-15
2.540823e-14	 -7.905150e-15	 2.254196e-15
3.348687e-14	 -1.028281e-14	 1.225397e-15
0	 0	 3.189081e-15
1.387211e-14	 -4.258472e-15	 2.963055e-15
3.348323e-14	 -1.028616e-14	 -1.231116e-15
1.386848e-14	 -4.261817e-15	 -2.967790e-15
0	 0	 -3.193647e-15
3.592716e-14	 -1.118298e-14	 -2.943992e-18
2.540389e-14	 -7.909888e-15	 -2.259423e-15
3.596532e-14	 -1.243172e-14	 -2.846827e-18
2.542816e-14	 -8.793583e-15	 -1.914051e-15
0	 0	 2.700737e-15
2.543251e-14	 -8.788762e-15	 1.908824e-15
0	 0	 -2.705497e-15
0	 0	 1.216146e-15
0	 0	 -1.219865e-15
1.550794e-14	 -1.303512e-14	 -3.082638e-18
0	 0	 4.339916e-15
0	 0	 -4.345123e-15
4.701688e-14	 -1.164952e-14	 -2.733868e-18
3.324696e-14	 -8.234692e-15	 3.067843e-15
1.096873e-14	 -9.215231e-15	 8.588599e-16
1.096096e-14	 -9.220204e-15	 -8.638020e-16
3.324408e-14	 -8.239399e-15	 -3.073181e-15
0	 0	 2.209792e-15
1.387733e-14	 -5.222645e-15	 2.111386e-15
3.350077e-14	 -1.261193e-14	 8.728252e-16
3.596880e-14	 -1.369086e-14	 -2.749938e-18
3.349711e-14	 -1.261553e-14	 -8.784226e-16
2.543163e-14	 -9.683347e-15	 -1.566945e-15
1.387368e-14	 -5.226247e-15	 -2.116243e-15
0	 0	 -2.214746e-15
2.543600e-14	 -9.678447e-15	 1.561718e-15
1.607157e-14	 -1.616879e-14	 -2.752069e-18
0	 0	 8.694199e-16
0	 0	 -8.737995e-16
3.311918e-14	 -8.603789e-15	 -2.149078e-15
0	 0	 3.032859e-15
4.684344e-14	 -1.216294e-14	 -2.690529e-18
0	 0	 -3.038152e-15
1.136929e-14	 -1.142938e-14	 6.138576e-16
1.136161e-14	 -1.143516e-14	 -6.187995e-16
3.312210e-14	 -8.598799e-15	 2.143740e-15
-9.341630e-15	 -1.574647e-14	 -6.614660e-16
0	 0	 -1.737955e-15
-7.024044e-15	 -1.205866e-14	 -1.230550e-15
-9.943705e-15	 -1.705835e-14	 -3.715834e-18
-9.353556e-15	 -1.575128e-14	 6.551011e-16
-7.039618e-15	 -1.206479e-14	 1.226090e-15
-3.877683e-15	 -6.525650e-15	 1.587840e-15
0	 0	 1.736467e-15
-3.865757e-15	 -6.520837e-15	 -1.590395e-15
1.665000e-14	 -4.478518e-15	 4.736827e-15
3.049536e-14	 -8.133054e-15	 -3.668440e-15
1.665128e-14	 -4.482376e-15	 -4.742588e-15
0	 0	 5.180751e-15
3.049445e-14	 -8.127784e-15	 3.663180e-15
4.312509e-14	 -1.149868e-14	 -2.176659e-18
4.019806e-14	 -1.081896e-14	 -1.965619e-15
0	 0	 -5.186917e-15
4.019678e-14	 -1.081510e-14	 1.960860e-15
3.073387e-14	 -7.698369e-15	 3.233390e-15
0	 0	 -1.525523e-15
-6.601894e-15	 -1.319937e-14	 -1.080285e-15
-6.617293e-15	 -1.320612e-14	 1.075825e-15
0	 0	 1.523474e-15
0	 0	 4.573661e-15
3.073466e-14	 -7.703961e-15	 -3.238650e-15
0	 0	 -4.579664e-15
-9.347197e-15	 -1.867104e-14	 -3.435847e-18
4.346505e-14	 -1.089166e-14	 -2.258247e-18
-8.220681e-15	 -1.871310e-14	 -5.086929e-16
-3.413712e-15	 -7.754606e-15	 1.219589e-15
0	 0	 -1.314174e-15
-3.402012e-15	 -7.749061e-15	 -1.222717e-15
-8.740281e-15	 -2.027332e-14	 -3.156551e-18
0	 0	 1.311567e-15
1.689227e-14	 -4.006122e-15	 -3.690417e-15
4.077966e-14	 -9.664941e-15	 1.525186e-15
0	 0	 3.968307e-15
1.689119e-14	 -4.001731e-15	 3.684714e-15
0	 0	 -3.974145e-15
-6.172809e-15	 -1.433315e-14	 -9.305627e-16
-8.232381e-15	 -1.871864e-14	 5.028999e-16
4.078074e-14	 -9.669331e-15	 -1.530002e-15
4.377032e-14	 -1.027596e-14	 -2.340800e-18
-6.188025e-15	 -1.434050e-14	 9.261024e-16
3.095247e-14	 -7.262878e-15	 2.805334e-15
3.095314e-14	 -7.268798e-15	 -2.810594e-15
4.406865e-14	 -9.663722e-15	 -2.423416e-18
-8.134231e-15	 -2.186173e-14	 -2.876966e-18
0	 0	 -1.102933e-15
0	 0	 1.099767e-15
0	 0	 3.362086e-15
0	 0	 -3.367758e-15
-5.759623e-15	 -1.546100e-14	 7.765964e-16
-5.744591e-15	 -1.545306e-14	 -7.810568e-16
3.116122e-14	 -6.836231e-15	 -2.381887e-15
3.116067e-14	 -6.829990e-15	 2.376628e-15
-7.073727e-15	 -2.164158e-14	 -3.559186e-16
-7.085170e-15	 -2.164784e-14	 3.506996e-16
-2.938450e-15	 -8.968812e-15	 8.511210e-16
-5.318205e-15	 -1.658672e-14	 6.261146e-16
4.127233e-14	 -8.493960e-15	 1.088319e-15
0	 0	 -8.905021e-16
0	 0	 8.867729e-16
-2.927007e-15	 -8.962551e-15	 -8.548231e-16
-5.303372e-15	 -1.657817e-14	 -6.305751e-16
1.709594e-14	 -3.516703e-15	 2.630432e-15
3.134803e-14	 -6.384090e-15	 1.945970e-15
3.134849e-14	 -6.390660e-15	 -1.951230e-15
1.709685e-14	 -3.521625e-15	 -2.636079e-15
0	 0	 2.752828e-15
4.127323e-14	 -8.498883e-15	 -1.093193e-15
0	 0	 -2.758337e-15
-7.509969e-15	 -2.345013e-14	 -2.595887e-18
4.433228e-14	 -9.033274e-15	 -2.505390e-18
0	 0	 -4.546427e-15
-2.015295e-14	 -1.969511e-14	 -3.216467e-15
-2.851643e-14	 -2.786130e-14	 -3.640753e-18
-2.017366e-14	 -1.970506e-14	 3.212686e-15
0	 0	 4.546147e-15
0	 0	 3.082214e-15
2.001373e-14	 -3.530668e-15	 2.179642e-15
2.831119e-14	 -4.998455e-15	 -1.404298e-18
2.002153e-14	 -3.538785e-15	 -2.184612e-15
0	 0	 -3.089345e-15
-1.947850e-14	 -2.077699e-14	 -2.468897e-15
2.104449e-14	 -1.991883e-15	 1.673840e-15
-2.755935e-14	 -2.939403e-14	 -2.988878e-18
-1.949920e-14	 -2.078704e-14	 2.465117e-15
2.976495e-14	 -2.823482e-15	 -1.788050e-18
2.105170e-14	 -2.000948e-15	 -1.678809e-15
0	 0	 -3.489467e-15
0	 0	 3.487883e-15
0	 0	 2.367274e-15
0	 0	 -2.373636e-15
-1.873124e-14	 -2.182768e-14	 -1.721110e-15
2.203707e-14	 -4.142667e-16	 1.168471e-15
0	 0	 -2.432940e-15
-2.650516e-14	 -3.087473e-14	 -2.336697e-18
-1.875185e-14	 -2.183777e-14	 1.717330e-15
0	 0	 2.430052e-15
0	 0	 1.653201e-15
3.117011e-14	 -5.929871e-16	 -2.172923e-18
2.204369e-14	 -4.242981e-16	 -1.173440e-15
0	 0	 -1.658794e-15
0	 0	 -5.505137e-15
-1.290699e-14	 -1.299149e-14	 -5.037995e-15
-2.361192e-14	 -2.376706e-14	 -3.894325e-15
-3.116950e-14	 -3.136850e-14	 -2.088477e-15
-3.340081e-14	 -3.361675e-14	 -2.523104e-18
-3.118032e-14	 -3.137365e-14	 2.084089e-15
-2.362702e-14	 -2.377395e-14	 3.891397e-15
-1.291780e-14	 -1.299663e-14	 5.036526e-15
0	 0	 5.504327e-15
0	 0	 -3.490074e-16
2.997097e-15	 4.157475e-15	 -3.196996e-16
5.591460e-15	 7.715003e-15	 -2.462839e-16
7.243853e-15	 1.002974e-14	 -1.322191e-16
7.918229e-15	 1.090156e-14	 -6.013441e-19
7.254812e-15	 1.001916e-14	 1.298900e-16
5.606175e-15	 7.701094e-15	 2.418199e-16
3.008056e-15	 4.146892e-15	 3.131006e-16
0	 0	 3.412822e-16
-2.364991e-14	 -2.382961e-14	 -3.435549e-15
6.483426e-15	 8.611341e-15	 -2.258235e-16
0	 0	 -4.857076e-15
-2.366556e-14	 -2.383606e-14	 3.432621e-15
0	 0	 4.855848e-15
0	 0	 -3.197577e-16
6.497786e-15	 8.596960e-15	 2.213595e-16
0	 0	 3.126599e-16
-3.345994e-14	 -3.370331e-14	 -2.314081e-18
9.178704e-15	 1.216720e-14	 -9.149776e-19
-1.293449e-14	 -1.304028e-14	 -3.912600e-15
-1.294605e-14	 -1.304473e-14	 3.910544e-15
0	 0	 -4.211180e-15
-3.349478e-14	 -3.376560e-14	 -2.107415e-18
-2.369022e-14	 -2.387735e-14	 2.975580e-15
0	 0	 4.209539e-15
3.960663e-15	 5.124103e-15	 -2.693867e-16
3.971196e-15	 5.113009e-15	 2.635067e-16
-3.124342e-14	 -3.149096e-14	 1.618453e-15
9.580352e-15	 1.235243e-14	 1.088422e-16
-2.367404e-14	 -2.387136e-14	 -2.978508e-15
-3.123186e-14	 -3.148651e-14	 -1.622254e-15
0	 0	 -2.905496e-16
1.043657e-14	 1.342852e-14	 -1.226987e-18
7.386787e-15	 9.488507e-15	 2.009292e-16
0	 0	 2.840759e-16
7.372789e-15	 9.503333e-15	 -2.053931e-16
9.569819e-15	 1.236352e-14	 -1.118899e-16
8.254346e-15	 1.038665e-14	 -1.849459e-16
-2.369470e-14	 -2.391310e-14	 -2.521033e-15
0	 0	 -3.564418e-15
-3.351922e-14	 -3.382095e-14	 -1.900647e-18
0	 0	 3.562363e-15
0	 0	 -2.613210e-16
1.168229e-14	 1.467769e-14	 -1.539291e-18
0	 0	 2.554721e-16
8.267980e-15	 1.037138e-14	 1.804821e-16
-2.371140e-14	 -2.391863e-14	 2.518105e-15
-1.294479e-14	 -1.306680e-14	 2.782393e-15
4.927808e-15	 6.070912e-15	 2.138097e-16
0	 0	 -2.914623e-15
-1.293252e-14	 -1.306308e-14	 -2.785037e-15
-2.369110e-14	 -2.393059e-14	 -2.061607e-15
-3.123180e-14	 -3.153863e-14	 -1.154729e-15
-3.124406e-14	 -3.154235e-14	 1.151517e-15
0	 0	 2.912149e-15
-2.370829e-14	 -2.393563e-14	 2.058679e-15
1.293668e-14	 1.593381e-14	 -1.854092e-18
0	 0	 -2.319958e-16
4.917733e-15	 6.082478e-15	 -2.189681e-16
9.140246e-15	 1.127431e-14	 -1.644315e-16
1.187931e-14	 1.467647e-14	 -9.151662e-17
1.188938e-14	 1.466491e-14	 8.774755e-17
0	 0	 2.267767e-16
-3.351938e-14	 -3.384855e-14	 -1.691043e-18
9.153492e-15	 1.125860e-14	 1.599678e-16
0	 0	 -4.621042e-15
-1.979982e-14	 -2.064509e-14	 -3.267826e-15
-2.800480e-14	 -2.919491e-14	 -8.162185e-19
-1.980489e-14	 -2.064148e-14	 3.265875e-15
0	 0	 4.618772e-15
0	 0	 -3.714788e-15
-5.462547e-15	 2.197250e-14	 -2.625976e-15
-7.713962e-15	 3.105908e-14	 -2.107438e-19
-5.446815e-15	 2.195475e-14	 2.622206e-15
0	 0	 3.707671e-15
-2.948976e-14	 -2.826854e-14	 -8.651509e-19
-2.085361e-14	 -1.998859e-14	 2.505696e-15
0	 0	 -2.895550e-15
0	 0	 2.889710e-15
-5.615896e-15	 3.247164e-14	 -8.491895e-19
-3.962824e-15	 2.295097e-14	 2.043377e-15
-2.084670e-14	 -1.999342e-14	 -2.507647e-15
0	 0	 -3.545988e-15
0	 0	 3.543816e-15
-3.979050e-15	 2.296845e-14	 -2.047146e-15
-2.454326e-15	 2.392966e-14	 -1.468750e-15
-2.186236e-14	 -1.926894e-14	 -1.747468e-15
0	 0	 -2.470934e-15
-3.092269e-14	 -2.724504e-14	 -9.144074e-19
-2.187112e-14	 -1.926284e-14	 1.745517e-15
0	 0	 2.468860e-15
0	 0	 -2.076746e-15
-3.459078e-15	 3.382871e-14	 -1.487627e-18
-2.437676e-15	 2.391257e-14	 1.464981e-15
0	 0	 2.072183e-15
-1.601269e-14	 -1.028007e-14	 -7.009862e-16
-1.283834e-14	 4.190514e-14	 -2.125410e-15
0	 0	 -1.853455e-15
-1.226013e-14	 -7.743330e-15	 -1.309646e-15
-1.733687e-14	 -1.093596e-14	 1.109761e-18
-1.601007e-14	 -1.026491e-14	 7.021183e-16
0	 0	 1.849405e-15
0	 0	 -5.611494e-15
-9.678716e-15	 3.179120e-14	 -3.967896e-15
-1.368138e-14	 4.495510e-14	 -8.999307e-19
-1.283225e-14	 4.190018e-14	 2.123310e-15
-9.670091e-15	 3.178419e-14	 3.964962e-15
-5.313443e-15	 1.735521e-14	 5.127108e-15
0	 0	 5.607425e-15
-6.633012e-15	 -4.263042e-15	 -1.695227e-15
-1.225683e-14	 -7.722941e-15	 1.308731e-15
-6.630394e-15	 -4.247882e-15	 1.692265e-15
-5.319530e-15	 1.736017e-14	 -5.130876e-15
-1.893790e-14	 -1.034620e-14	 8.026568e-19
-1.315690e-14	 4.526064e-14	 -1.016400e-18
-1.339226e-14	 -7.326428e-15	 -1.149377e-15
0	 0	 -1.626516e-15
-1.339008e-14	 -7.305512e-15	 1.148463e-15
0	 0	 1.623082e-15
0	 0	 -4.969125e-15
-9.307643e-15	 3.200974e-14	 -3.513853e-15
-9.297871e-15	 3.200313e-14	 3.510919e-15
0	 0	 4.965290e-15
-1.451639e-14	 -6.880291e-15	 9.889538e-16
-8.919591e-15	 3.220125e-14	 3.058611e-15
-1.183882e-14	 4.243262e-14	 -1.665485e-15
-4.898497e-15	 1.757252e-14	 4.016258e-15
0	 0	 -1.400664e-15
-7.851682e-15	 -3.803704e-15	 -1.302330e-15
0	 0	 1.397841e-15
-2.052853e-14	 -9.746037e-15	 4.973497e-19
0	 0	 -4.329361e-15
-4.906119e-15	 1.757689e-14	 -4.019647e-15
-1.262202e-14	 4.554536e-14	 -1.130800e-18
0	 0	 4.325755e-15
-1.895555e-14	 -9.172002e-15	 -5.388006e-16
-1.895444e-14	 -9.156189e-15	 5.392136e-16
-1.451746e-14	 -6.901704e-15	 -9.898680e-16
-8.930491e-15	 3.220745e-14	 -3.061545e-15
-1.183120e-14	 4.242825e-14	 1.663007e-15
-7.850568e-15	 -3.787891e-15	 1.300088e-15
-2.210354e-14	 -9.145870e-15	 1.914089e-19
-1.562882e-14	 -6.455938e-15	 8.294447e-16
-8.543053e-15	 3.238897e-14	 2.605436e-15
0	 0	 -3.688296e-15
0	 0	 3.684919e-15
-1.209062e-14	 4.580927e-14	 -1.245060e-18
0	 0	 -1.174811e-15
0	 0	 1.172600e-15
-1.562878e-14	 -6.477844e-15	 -8.303586e-16
-8.555071e-15	 3.239475e-14	 -2.608369e-15
-2.186198e-14	 -8.034411e-15	 -3.765624e-16
0	 0	 -9.476540e-16
-2.186238e-14	 -8.017996e-15	 3.762530e-16
0	 0	 9.460614e-16
-2.368203e-14	 -8.526622e-15	 -1.172188e-19
0	 0	 -3.044626e-15
0	 0	 3.041483e-15
-1.081762e-14	 4.286988e-14	 -1.204368e-15
-1.080849e-14	 4.286612e-14	 1.201510e-15
-4.474457e-15	 1.775515e-14	 2.902806e-15
-9.055604e-15	 -3.333063e-15	 -9.094302e-16
-1.674530e-14	 -6.040964e-15	 -6.699817e-16
-1.674647e-14	 -6.018586e-15	 6.690681e-16
-9.056005e-15	 -3.316648e-15	 9.079124e-16
-1.154186e-14	 4.604541e-14	 -1.361517e-18
-4.483591e-15	 1.775890e-14	 -2.905815e-15
-8.154369e-15	 3.255589e-14	 2.150309e-15
-8.167506e-15	 3.256122e-14	 -2.153242e-15
-7.206866e-15	 9.794844e-15	 1.024263e-15
-9.120608e-15	 3.361999e-14	 -4.111309e-15
0	 0	 1.446005e-15
-1.018796e-14	 1.387507e-14	 2.495216e-18
0	 0	 -1.450761e-15
0	 0	 -5.813058e-15
-1.289601e-14	 4.755166e-14	 -1.837929e-18
0	 0	 5.812697e-15
-7.201702e-15	 9.827844e-15	 -1.024146e-15
-9.117616e-15	 3.363096e-14	 4.109290e-15
-9.414179e-15	 1.021457e-14	 7.992125e-16
0	 0	 1.128814e-15
0	 0	 -1.131701e-15
-9.630279e-15	 3.356784e-14	 -3.170601e-15
-9.624929e-15	 3.357926e-14	 3.168582e-15
0	 0	 -4.483184e-15
0	 0	 4.482219e-15
-9.409428e-15	 1.024773e-14	 -7.990960e-16
-1.361500e-14	 4.747550e-14	 -1.536470e-18
-1.331058e-14	 1.447008e-14	 1.559926e-18
-1.431317e-14	 4.726748e-14	 -1.235321e-18
0	 0	 8.121653e-16
-1.646095e-14	 1.504084e-14	 6.246763e-19
0	 0	 -8.131823e-16
0	 0	 -3.153744e-15
0	 0	 3.152176e-15
-1.163712e-14	 1.065107e-14	 -5.745882e-16
-1.164141e-14	 1.061793e-14	 5.747043e-16
-1.012521e-14	 3.341853e-14	 -2.230544e-15
-1.011747e-14	 3.343040e-14	 2.228525e-15
0	 0	 4.092244e-15
-3.361949e-15	 1.354014e-14	 3.745599e-15
-6.256228e-15	 2.479039e-14	 2.895420e-15
-8.114277e-15	 3.270227e-14	 1.553581e-15
-8.846383e-15	 3.507768e-14	 2.510968e-18
-8.112427e-15	 3.272194e-14	 -1.549836e-15
-6.253650e-15	 2.481713e-14	 -2.894334e-15
-3.360099e-15	 1.355981e-14	 -3.747172e-15
0	 0	 -4.095094e-15
0	 0	 3.613099e-15
-1.014599e-14	 3.515051e-14	 2.125114e-18
0	 0	 -3.615177e-15
-7.172793e-15	 2.486922e-14	 -2.555063e-15
-7.176313e-15	 2.484236e-14	 2.556149e-15
-8.092921e-15	 2.487701e-14	 2.218396e-15
-1.052411e-14	 3.279588e-14	 1.208513e-15
0	 0	 3.135684e-15
-4.360267e-15	 1.357999e-14	 2.913631e-15
-1.052102e-14	 3.281563e-14	 -1.205743e-15
-4.357170e-15	 1.359974e-14	 -2.914228e-15
0	 0	 -3.136997e-15
-1.144213e-14	 3.519907e-14	 1.742523e-18
-8.088474e-15	 2.490394e-14	 -2.217310e-15
-1.272438e-14	 3.523375e-14	 1.359150e-18
-8.994616e-15	 2.492825e-14	 -1.878906e-15
0	 0	 2.657836e-15
-8.999986e-15	 2.490126e-14	 1.879992e-15
0	 0	 -2.658382e-15
0	 0	 2.177175e-15
-5.350341e-15	 1.358520e-14	 2.080146e-15
-1.291400e-14	 3.280976e-14	 8.624671e-16
-1.401532e-14	 3.523722e-14	 9.716957e-19
-1.290966e-14	 3.282950e-14	 -8.606769e-16
-9.906823e-15	 2.493173e-14	 -1.538985e-15
-5.346004e-15	 1.360494e-14	 -2.079765e-15
0	 0	 -2.176946e-15
-9.913129e-15	 2.490472e-14	 1.540071e-15
-1.112682e-14	 2.480054e-14	 -1.526055e-15
0	 0	 -2.157466e-15
-6.005996e-15	 1.352855e-14	 -2.061515e-15
-1.449695e-14	 3.267380e-14	 -8.546667e-16
-1.573313e-14	 3.509122e-14	 -9.309130e-19
-1.449283e-14	 3.269244e-14	 8.529791e-16
-1.112083e-14	 2.482614e-14	 1.524969e-15
-6.001875e-15	 1.354719e-14	 2.061031e-15
0	 0	 2.157156e-15
0	 0	 -2.635953e-15
-1.017161e-14	 2.479708e-14	 -1.864587e-15
0	 0	 2.636362e-15
-1.438030e-14	 3.508776e-14	 -1.290559e-18
-1.016646e-14	 2.482267e-14	 1.863501e-15
-1.303787e-14	 3.505306e-14	 -1.646057e-18
-9.217286e-15	 2.479835e-14	 2.200298e-15
0	 0	 -3.111841e-15
-4.969136e-15	 1.352334e-14	 -2.891875e-15
-1.199065e-14	 3.267858e-14	 1.196574e-15
-4.966125e-15	 1.354200e-14	 2.892329e-15
0	 0	 3.112961e-15
-9.221613e-15	 2.477283e-14	 -2.201384e-15
-1.199366e-14	 3.265992e-14	 -1.199200e-15
-8.262072e-15	 2.473816e-14	 -2.537747e-15
-8.258577e-15	 2.476361e-14	 2.536661e-15
0	 0	 -3.587296e-15
-1.168157e-14	 3.500448e-14	 -2.000847e-18
0	 0	 3.589125e-15
0	 0	 -4.064482e-15
-3.924033e-15	 1.348347e-14	 -3.719850e-15
-7.299054e-15	 2.468617e-14	 -2.875412e-15
-9.472143e-15	 3.256280e-14	 -1.542864e-15
-1.032092e-14	 3.492814e-14	 -2.359164e-18
-9.470247e-15	 3.258139e-14	 1.539303e-15
-7.296405e-15	 2.471150e-14	 2.874326e-15
-3.922138e-15	 1.350206e-14	 3.721239e-15
0	 0	 4.067029e-15
-8.876286e-15	 3.296150e-14	 2.146611e-15
-8.868486e-15	 3.297402e-14	 -2.144592e-15
-1.288669e-14	 9.959047e-15	 -4.642612e-16
-1.288289e-14	 9.989406e-15	 4.641451e-16
0	 0	 3.034992e-15
0	 0	 -3.033480e-15
0	 0	 -6.560219e-16
-1.822277e-14	 1.410484e-14	 -5.681639e-19
0	 0	 6.569262e-16
-1.254691e-14	 4.661904e-14	 1.263569e-18
-1.496851e-14	 1.351681e-14	 -1.411547e-18
-1.195440e-14	 4.681350e-14	 1.599487e-18
-1.058238e-14	 9.572226e-15	 6.646729e-16
0	 0	 4.338115e-15
0	 0	 -4.337275e-15
-8.455471e-15	 3.309369e-14	 3.068268e-15
-8.450051e-15	 3.310575e-14	 -3.066249e-15
0	 0	 -9.387814e-16
0	 0	 9.413715e-16
-1.058683e-14	 9.541881e-15	 -6.647895e-16
-8.017729e-15	 3.314729e-14	 -3.988123e-15
-8.301840e-15	 9.141066e-15	 8.656347e-16
0	 0	 5.641237e-15
-1.134107e-14	 4.686921e-14	 1.935246e-18
0	 0	 -5.641070e-15
0	 0	 -1.222083e-15
-1.174376e-14	 1.290621e-14	 -2.255333e-18
0	 0	 1.226360e-15
-8.020799e-15	 3.313569e-14	 3.990142e-15
-8.306917e-15	 9.110908e-15	 -8.657517e-16
-6.789383e-15	 3.160494e-14	 1.978461e-15
-6.776691e-15	 3.160096e-14	 -1.975528e-15
-3.737589e-15	 1.723759e-14	 2.672874e-15
-9.591840e-15	 4.469104e-14	 1.400062e-18
-9.794072e-15	 -3.951645e-15	 1.169971e-15
-1.810909e-14	 -7.176022e-15	 8.658679e-16
-1.811114e-14	 -7.157655e-15	 -8.649543e-16
-9.795145e-15	 -3.938202e-15	 -1.168574e-15
-9.016355e-15	 4.161119e-14	 1.108025e-15
-9.007562e-15	 4.160847e-14	 -1.105075e-15
-3.728796e-15	 1.723487e-14	 -2.669957e-15
0	 0	 2.797379e-15
0	 0	 -2.794313e-15
-2.560971e-14	 -1.013568e-14	 1.818742e-19
0	 0	 1.224562e-15
-2.364856e-14	 -9.517091e-15	 -4.841082e-16
0	 0	 -1.223098e-15
-2.364749e-14	 -9.530535e-15	 4.845381e-16
-7.207395e-15	 3.142837e-14	 2.414292e-15
-1.696645e-14	 -7.623357e-15	 1.047590e-15
0	 0	 1.481887e-15
0	 0	 -1.479929e-15
-1.018454e-14	 4.444148e-14	 1.309839e-18
0	 0	 3.413704e-15
0	 0	 -3.410457e-15
-7.195734e-15	 3.142398e-14	 -2.411359e-15
-1.696730e-14	 -7.605484e-15	 -1.046676e-15
-2.399285e-14	 -1.076802e-14	 -6.512047e-20
-8.560022e-15	 -4.419929e-15	 -1.612830e-15
-7.612397e-15	 3.123097e-14	 2.848172e-15
-1.010875e-14	 4.114371e-14	 -1.547362e-15
-1.582552e-14	 -8.055938e-15	 1.228336e-15
-2.066734e-14	 -1.067973e-14	 -6.685051e-16
-2.066787e-14	 -1.069254e-14	 6.683559e-16
0	 0	 4.027859e-15
-4.192250e-15	 1.704376e-14	 3.740287e-15
-1.075816e-14	 4.416415e-14	 1.221827e-18
0	 0	 -4.024435e-15
-2.237947e-14	 -1.138041e-14	 -3.099446e-19
0	 0	 1.737800e-15
-8.560550e-15	 -4.432739e-15	 1.614808e-15
0	 0	 -1.735352e-15
-1.011615e-14	 4.114700e-14	 1.549977e-15
-4.184852e-15	 1.704047e-14	 -3.737034e-15
-7.601769e-15	 3.122619e-14	 -2.845238e-15
-1.582520e-14	 -8.038575e-15	 -1.227422e-15
0	 0	 4.640713e-15
-8.019995e-15	 3.102316e-14	 3.281401e-15
-8.010407e-15	 3.101800e-14	 -3.278467e-15
0	 0	 -4.637112e-15
0	 0	 1.993713e-15
-1.467095e-14	 -8.472536e-15	 -1.408276e-15
0	 0	 -1.990775e-15
-1.467246e-14	 -8.489386e-15	 1.409190e-15
-1.133524e-14	 4.386601e-14	 1.133614e-18
-2.075048e-14	 -1.199454e-14	 -5.542103e-19
-4.638224e-15	 1.681523e-14	 4.805099e-15
-7.311410e-15	 -4.901669e-15	 2.059210e-15
-1.350975e-14	 -8.898703e-15	 -1.589889e-15
-7.309286e-15	 -4.889535e-15	 -2.056655e-15
0	 0	 5.255737e-15
-8.420642e-15	 3.079452e-14	 3.716365e-15
-1.190191e-14	 4.354705e-14	 1.043160e-18
-1.118739e-14	 4.058875e-14	 -1.988348e-15
-8.412114e-15	 3.078899e-14	 -3.713430e-15
-4.632243e-15	 1.681139e-14	 -4.801510e-15
0	 0	 -5.251955e-15
0	 0	 2.250928e-15
-1.351247e-14	 -8.915014e-15	 1.590804e-15
-1.910760e-14	 -1.259652e-14	 -7.999402e-19
-1.764796e-14	 -1.181204e-14	 -8.527922e-16
0	 0	 -2.247498e-15
-1.119337e-14	 4.059259e-14	 1.990628e-15
-1.765008e-14	 -1.182417e-14	 8.520667e-16
0	 0	 1.730949e-15
-1.321814e-15	 3.198304e-14	 1.540774e-18