# vtk DataFile Version 3.0
Unstructured Grid Example
ASCII
DATASET UNSTRUCTURED_GRID
POINTS 832 float
-1	 0	 0
-1	 0	 3.750000e-01
-1	 0	 7.500000e-01
-1	 0	 1.125000e+00
-1	 0	 1.500000e+00
-1	 0	 1.875000e+00
-1	 0	 2.250000e+00
-1	 0	 2.625000e+00
-1	 0	 3
-9.875000e-01	 0	 0
-9.875000e-01	 0	 1.500000e+00
-9.875000e-01	 0	 3
-9.875000e-01	 0	 2.250000e+00
-9.875000e-01	 0	 7.500000e-01
-9.833054e-01	 -1.819631e-01	 7.500000e-01
-9.833054e-01	 -1.819631e-01	 0
-9.833054e-01	 -1.819631e-01	 1.500000e+00
-9.833054e-01	 -1.819631e-01	 3.000000e+00
-9.833054e-01	 1.819631e-01	 2.250000e+00
-9.833054e-01	 1.819631e-01	 0
-9.833054e-01	 1.819631e-01	 1.500000e+00
-9.833054e-01	 1.819631e-01	 3.000000e+00
-9.833054e-01	 1.819631e-01	 7.500000e-01
-9.833054e-01	 -1.819631e-01	 2.250000e+00
-9.750000e-01	 0	 7.500000e-01
-9.750000e-01	 0	 1.125000e+00
-9.750000e-01	 0	 0
-9.750000e-01	 0	 3.750000e-01
-9.750000e-01	 0	 1.875000e+00
-9.750000e-01	 0	 2.625000e+00
-9.750000e-01	 0	 3
-9.750000e-01	 0	 1.500000e+00
-9.750000e-01	 0	 2.250000e+00
-9.625000e-01	 0	 1.500000e+00
-9.625000e-01	 0	 2.250000e+00
-9.625000e-01	 0	 0
-9.625000e-01	 0	 7.500000e-01
-9.625000e-01	 0	 3
-9.587227e-01	 -1.774140e-01	 0
-9.587227e-01	 -1.774140e-01	 3.000000e+00
-9.587227e-01	 -1.774140e-01	 1.500000e+00
-9.587227e-01	 1.774140e-01	 0
-9.587227e-01	 1.774140e-01	 3.000000e+00
-9.587227e-01	 1.774140e-01	 1.500000e+00
-9.587227e-01	 1.774140e-01	 7.500000e-01
-9.587227e-01	 -1.774140e-01	 7.500000e-01
-9.587227e-01	 -1.774140e-01	 2.250000e+00
-9.587227e-01	 1.774140e-01	 2.250000e+00
-9.500000e-01	 0	 0
-9.500000e-01	 0	 3.750000e-01
-9.500000e-01	 0	 1.125000e+00
-9.500000e-01	 0	 1.500000e+00
-9.500000e-01	 0	 1.875000e+00
-9.500000e-01	 0	 2.250000e+00
-9.500000e-01	 0	 2.625000e+00
-9.500000e-01	 0	 3
-9.500000e-01	 0	 7.500000e-01
-9.341401e-01	 -1.728649e-01	 1.500000e+00
-9.341401e-01	 -1.728649e-01	 0
-9.341401e-01	 -1.728649e-01	 3.000000e+00
-9.341401e-01	 1.728649e-01	 2.250000e+00
-9.341401e-01	 1.728649e-01	 0
-9.341401e-01	 1.728649e-01	 1.500000e+00
-9.341401e-01	 1.728649e-01	 3.000000e+00
-9.341401e-01	 -1.728649e-01	 7.500000e-01
-9.341401e-01	 -1.728649e-01	 2.250000e+00
-9.341401e-01	 1.728649e-01	 7.500000e-01
-9.297883e-01	 -3.680947e-01	 1.125000e+00
-9.297883e-01	 -3.680947e-01	 0
-9.297883e-01	 -3.680947e-01	 7.500000e-01
-9.297883e-01	 -3.680947e-01	 1.500000e+00
-9.297883e-01	 -3.680947e-01	 1.875000e+00
-9.297883e-01	 -3.680947e-01	 2.250000e+00
-9.297883e-01	 -3.680947e-01	 2.625000e+00
-9.297883e-01	 -3.680947e-01	 3.000000e+00
-9.297883e-01	 -3.680947e-01	 3.750000e-01
-9.297883e-01	 3.680947e-01	 3.750000e-01
-9.297883e-01	 3.680947e-01	 2.250000e+00
-9.297883e-01	 3.680947e-01	 2.625000e+00
-9.297883e-01	 3.680947e-01	 0
-9.297883e-01	 3.680947e-01	 7.500000e-01
-9.297883e-01	 3.680947e-01	 1.500000e+00
-9.297883e-01	 3.680947e-01	 1.875000e+00
-9.297883e-01	 3.680947e-01	 3.000000e+00
-9.297883e-01	 3.680947e-01	 1.125000e+00
-9.181659e-01	 3.634935e-01	 7.500000e-01
-9.181659e-01	 -3.634935e-01	 0
-9.181659e-01	 -3.634935e-01	 7.500000e-01
-9.181659e-01	 -3.634935e-01	 2.250000e+00
-9.181659e-01	 -3.634935e-01	 3
-9.181659e-01	 3.634935e-01	 0
-9.181659e-01	 3.634935e-01	 2.250000e+00
-9.181659e-01	 3.634935e-01	 3
-9.181659e-01	 -3.634935e-01	 1.500000e+00
-9.181659e-01	 3.634935e-01	 1.500000e+00
-9.065436e-01	 -3.588923e-01	 1.125000e+00
-9.065436e-01	 -3.588923e-01	 2.625000e+00
-9.065436e-01	 -3.588923e-01	 0
-9.065436e-01	 -3.588923e-01	 3.750000e-01
-9.065436e-01	 -3.588923e-01	 1.500000e+00
-9.065436e-01	 -3.588923e-01	 3
-9.065436e-01	 3.588923e-01	 2.625000e+00
-9.065436e-01	 3.588923e-01	 1.125000e+00
-9.065436e-01	 3.588923e-01	 0
-9.065436e-01	 3.588923e-01	 3.750000e-01
-9.065436e-01	 3.588923e-01	 3
-9.065436e-01	 -3.588923e-01	 7.500000e-01
-9.065436e-01	 -3.588923e-01	 1.875000e+00
-9.065436e-01	 3.588923e-01	 1.875000e+00
-9.065436e-01	 3.588923e-01	 1.500000e+00
-9.065436e-01	 -3.588923e-01	 2.250000e+00
-9.065436e-01	 3.588923e-01	 7.500000e-01
-9.065436e-01	 3.588923e-01	 2.250000e+00
-8.949212e-01	 3.542912e-01	 1.500000e+00
-8.949212e-01	 -3.542912e-01	 1.500000e+00
-8.949212e-01	 -3.542912e-01	 0
-8.949212e-01	 -3.542912e-01	 3.000000e+00
-8.949212e-01	 3.542912e-01	 0
-8.949212e-01	 3.542912e-01	 3.000000e+00
-8.949212e-01	 -3.542912e-01	 2.250000e+00
-8.949212e-01	 -3.542912e-01	 7.500000e-01
-8.949212e-01	 3.542912e-01	 2.250000e+00
-8.949212e-01	 3.542912e-01	 7.500000e-01
-8.832989e-01	 -3.496900e-01	 1.125000e+00
-8.832989e-01	 -3.496900e-01	 1.875000e+00
-8.832989e-01	 -3.496900e-01	 2.625000e+00
-8.832989e-01	 -3.496900e-01	 2.250000e+00
-8.832989e-01	 3.496900e-01	 1.125000e+00
-8.832989e-01	 -3.496900e-01	 0
-8.832989e-01	 -3.496900e-01	 3.000000e+00
-8.832989e-01	 -3.496900e-01	 3.750000e-01
-8.832989e-01	 -3.496900e-01	 7.500000e-01
-8.832989e-01	 3.496900e-01	 3.750000e-01
-8.832989e-01	 3.496900e-01	 7.500000e-01
-8.832989e-01	 3.496900e-01	 2.250000e+00
-8.832989e-01	 3.496900e-01	 2.625000e+00
-8.832989e-01	 3.496900e-01	 0
-8.832989e-01	 3.496900e-01	 1.875000e+00
-8.832989e-01	 3.496900e-01	 3.000000e+00
-8.832989e-01	 -3.496900e-01	 1.500000e+00
-8.832989e-01	 3.496900e-01	 1.500000e+00
-8.369955e-01	 -5.472098e-01	 0
-8.369955e-01	 -5.472098e-01	 7.500000e-01
-8.369955e-01	 -5.472098e-01	 1.500000e+00
-8.369955e-01	 -5.472098e-01	 2.250000e+00
-8.369955e-01	 -5.472098e-01	 3
-8.369955e-01	 5.472098e-01	 0
-8.369955e-01	 5.472098e-01	 7.500000e-01
-8.369955e-01	 5.472098e-01	 1.500000e+00
-8.369955e-01	 5.472098e-01	 2.250000e+00
-8.369955e-01	 5.472098e-01	 3
-8.160706e-01	 -5.335295e-01	 7.500000e-01
-8.160706e-01	 5.335295e-01	 7.500000e-01
-8.160706e-01	 -5.335295e-01	 1.500000e+00
-8.160706e-01	 -5.335295e-01	 2.250000e+00
-8.160706e-01	 5.335295e-01	 1.500000e+00
-8.160706e-01	 5.335295e-01	 2.250000e+00
-8.160706e-01	 -5.335295e-01	 0
-8.160706e-01	 -5.335295e-01	 3.000000e+00
-8.160706e-01	 5.335295e-01	 0
-8.160706e-01	 5.335295e-01	 3.000000e+00
-7.951457e-01	 -5.198493e-01	 7.500000e-01
-7.951457e-01	 5.198493e-01	 7.500000e-01
-7.951457e-01	 -5.198493e-01	 0
-7.951457e-01	 -5.198493e-01	 1.500000e+00
-7.951457e-01	 -5.198493e-01	 2.250000e+00
-7.951457e-01	 -5.198493e-01	 3
-7.951457e-01	 5.198493e-01	 0
-7.951457e-01	 5.198493e-01	 1.500000e+00
-7.951457e-01	 5.198493e-01	 2.250000e+00
-7.951457e-01	 5.198493e-01	 3
-7.071068e-01	 -7.071068e-01	 0
-7.071068e-01	 -7.071068e-01	 3.750000e-01
-7.071068e-01	 -7.071068e-01	 7.500000e-01
-7.071068e-01	 -7.071068e-01	 1.125000e+00
-7.071068e-01	 -7.071068e-01	 1.500000e+00
-7.071068e-01	 -7.071068e-01	 1.875000e+00
-7.071068e-01	 -7.071068e-01	 2.250000e+00
-7.071068e-01	 -7.071068e-01	 2.625000e+00
-7.071068e-01	 -7.071068e-01	 3.000000e+00
-7.071068e-01	 7.071068e-01	 0
-7.071068e-01	 7.071068e-01	 3.750000e-01
-7.071068e-01	 7.071068e-01	 7.500000e-01
-7.071068e-01	 7.071068e-01	 1.125000e+00
-7.071068e-01	 7.071068e-01	 1.500000e+00
-7.071068e-01	 7.071068e-01	 1.875000e+00
-7.071068e-01	 7.071068e-01	 2.250000e+00
-7.071068e-01	 7.071068e-01	 2.625000e+00
-7.071068e-01	 7.071068e-01	 3.000000e+00
-6.982679e-01	 -6.982679e-01	 7.500000e-01
-6.982679e-01	 6.982679e-01	 7.500000e-01
-6.982679e-01	 -6.982679e-01	 0
-6.982679e-01	 -6.982679e-01	 2.250000e+00
-6.982679e-01	 -6.982679e-01	 3.000000e+00
-6.982679e-01	 6.982679e-01	 0
-6.982679e-01	 6.982679e-01	 2.250000e+00
-6.982679e-01	 6.982679e-01	 3.000000e+00
-6.982679e-01	 -6.982679e-01	 1.500000e+00
-6.982679e-01	 6.982679e-01	 1.500000e+00
-6.894291e-01	 -6.894291e-01	 3.750000e-01
-6.894291e-01	 -6.894291e-01	 2.625000e+00
-6.894291e-01	 -6.894291e-01	 0
-6.894291e-01	 -6.894291e-01	 1.500000e+00
-6.894291e-01	 -6.894291e-01	 2.250000e+00
-6.894291e-01	 -6.894291e-01	 3.000000e+00
-6.894291e-01	 6.894291e-01	 3.750000e-01
-6.894291e-01	 6.894291e-01	 2.625000e+00
-6.894291e-01	 -6.894291e-01	 1.875000e+00
-6.894291e-01	 6.894291e-01	 1.875000e+00
-6.894291e-01	 -6.894291e-01	 7.500000e-01
-6.894291e-01	 -6.894291e-01	 1.125000e+00
-6.894291e-01	 6.894291e-01	 0
-6.894291e-01	 6.894291e-01	 1.500000e+00
-6.894291e-01	 6.894291e-01	 2.250000e+00
-6.894291e-01	 6.894291e-01	 3.000000e+00
-6.894291e-01	 6.894291e-01	 7.500000e-01
-6.894291e-01	 6.894291e-01	 1.125000e+00
-6.805903e-01	 6.805903e-01	 7.500000e-01
-6.805903e-01	 -6.805903e-01	 7.500000e-01
-6.805903e-01	 -6.805903e-01	 0
-6.805903e-01	 -6.805903e-01	 1.500000e+00
-6.805903e-01	 -6.805903e-01	 3.000000e+00
-6.805903e-01	 6.805903e-01	 0
-6.805903e-01	 6.805903e-01	 1.500000e+00
-6.805903e-01	 6.805903e-01	 3.000000e+00
-6.805903e-01	 6.805903e-01	 2.250000e+00
-6.805903e-01	 -6.805903e-01	 2.250000e+00
-6.717514e-01	 -6.717514e-01	 2.625000e+00
-6.717514e-01	 6.717514e-01	 2.625000e+00
-6.717514e-01	 -6.717514e-01	 0
-6.717514e-01	 -6.717514e-01	 3.750000e-01
-6.717514e-01	 -6.717514e-01	 7.500000e-01
-6.717514e-01	 -6.717514e-01	 1.125000e+00
-6.717514e-01	 -6.717514e-01	 1.875000e+00
-6.717514e-01	 -6.717514e-01	 3.000000e+00
-6.717514e-01	 -6.717514e-01	 2.250000e+00
-6.717514e-01	 6.717514e-01	 1.500000e+00
-6.717514e-01	 6.717514e-01	 0
-6.717514e-01	 6.717514e-01	 3.750000e-01
-6.717514e-01	 6.717514e-01	 7.500000e-01
-6.717514e-01	 6.717514e-01	 1.125000e+00
-6.717514e-01	 6.717514e-01	 1.875000e+00
-6.717514e-01	 6.717514e-01	 3.000000e+00
-6.717514e-01	 -6.717514e-01	 1.500000e+00
-6.717514e-01	 6.717514e-01	 2.250000e+00
-5.472098e-01	 -8.369955e-01	 0
-5.472098e-01	 -8.369955e-01	 7.500000e-01
-5.472098e-01	 -8.369955e-01	 1.500000e+00
-5.472098e-01	 -8.369955e-01	 2.250000e+00
-5.472098e-01	 -8.369955e-01	 3
-5.472098e-01	 8.369955e-01	 0
-5.472098e-01	 8.369955e-01	 7.500000e-01
-5.472098e-01	 8.369955e-01	 1.500000e+00
-5.472098e-01	 8.369955e-01	 2.250000e+00
-5.472098e-01	 8.369955e-01	 3
-5.335295e-01	 -8.160706e-01	 1.500000e+00
-5.335295e-01	 -8.160706e-01	 2.250000e+00
-5.335295e-01	 8.160706e-01	 0
-5.335295e-01	 8.160706e-01	 3.000000e+00
[...]
POINT_DATA 832
VECTORS displacement float
0	 0	 3.789268e-10
1.240067e-09	 -3.262765e-10	 3.466916e-10
2.270013e-09	 -6.071409e-10	 2.679412e-10
2.993782e-09	 -7.877035e-10	 1.436038e-10
3.210276e-09	 -8.586302e-10	 -6.234099e-16
2.993775e-09	 -7.877066e-10	 -1.436045e-10
2.270003e-09	 -6.071455e-10	 -2.679410e-10
1.240060e-09	 -3.262797e-10	 -3.466904e-10
0	 0	 -3.789251e-10
0	 0	 3.349619e-10
3.217060e-09	 -9.760200e-10	 -4.796685e-16
0	 0	 -3.349605e-10
2.274800e-09	 -6.901530e-10	 -2.368532e-10
2.274810e-09	 -6.901477e-10	 2.368535e-10
9.216109e-10	 -6.935476e-10	 9.452731e-11
0	 0	 1.336832e-10
1.303343e-09	 -9.808285e-10	 -1.285766e-15
0	 0	 -1.336801e-10
3.038190e-09	 -7.639194e-10	 -3.711186e-10
0	 0	 5.248411e-10
4.296649e-09	 -1.080342e-09	 2.198261e-16
0	 0	 -5.248410e-10
3.038189e-09	 -7.639142e-10	 3.711188e-10
9.215942e-10	 -6.935533e-10	 -9.452707e-11
2.277957e-09	 -7.728480e-10	 2.058887e-10
3.002529e-09	 -1.005258e-09	 1.120789e-10
0	 0	 2.911710e-10
1.243690e-09	 -4.163901e-10	 2.705834e-10
3.002522e-09	 -1.005262e-09	 -1.120793e-10
1.243683e-09	 -4.163943e-10	 -2.705825e-10
0	 0	 -2.911698e-10
3.221511e-09	 -1.092976e-09	 -3.367309e-16
2.277948e-09	 -7.728539e-10	 -2.058884e-10
3.224702e-09	 -1.208765e-09	 -1.935191e-16
2.280204e-09	 -8.547294e-10	 -1.748663e-10
0	 0	 2.472988e-10
2.280213e-09	 -8.547228e-10	 1.748665e-10
0	 0	 -2.472980e-10
0	 0	 1.038773e-10
0	 0	 -1.038753e-10
1.356697e-09	 -1.261404e-09	 -7.586403e-16
0	 0	 4.049902e-10
0	 0	 -4.049901e-10
4.290524e-09	 -1.141229e-09	 1.770425e-16
3.033859e-09	 -8.069673e-10	 2.863714e-10
9.593377e-10	 -8.919445e-10	 7.345175e-11
9.593211e-10	 -8.919508e-10	 -7.345150e-11
3.033859e-09	 -8.069738e-10	 -2.863712e-10
0	 0	 2.032269e-10
1.244300e-09	 -5.058119e-10	 1.942859e-10
3.004002e-09	 -1.221142e-09	 8.047569e-11
3.225227e-09	 -1.325340e-09	 -4.916516e-17
3.003995e-09	 -1.221147e-09	 -8.047577e-11
2.280575e-09	 -9.371602e-10	 -1.437028e-10
1.244293e-09	 -5.058171e-10	 -1.942853e-10
0	 0	 -2.032263e-10
2.280584e-09	 -9.371530e-10	 1.437030e-10
1.407953e-09	 -1.544605e-09	 -2.309321e-16
0	 0	 7.413435e-11
0	 0	 -7.413340e-11
3.021232e-09	 -8.487391e-10	 -2.016550e-10
0	 0	 2.851834e-10
4.272668e-09	 -1.200293e-09	 1.339357e-16
0	 0	 -2.851832e-10
9.955814e-10	 -1.092197e-09	 5.242069e-11
9.955648e-10	 -1.092204e-09	 -5.242044e-11
3.021233e-09	 -8.487313e-10	 2.016552e-10
-8.763108e-10	 -1.498345e-09	 -6.537232e-11
0	 0	 -1.725441e-10
-6.593635e-10	 -1.147817e-09	 -1.220082e-10
-9.324934e-10	 -1.623264e-09	 -1.436525e-15
-8.763242e-10	 -1.498350e-09	 6.537054e-11
-6.593813e-10	 -1.147824e-09	 1.220084e-10
-3.629893e-10	 -6.206383e-10	 1.578217e-10
0	 0	 1.725475e-10
-3.629759e-10	 -6.206332e-10	 -1.578194e-10
1.564635e-09	 -4.453581e-10	 4.534841e-10
2.865557e-09	 -8.090523e-10	 -3.506849e-10
1.564643e-09	 -4.453641e-10	 -4.534851e-10
0	 0	 4.959427e-10
2.865548e-09	 -8.090441e-10	 3.506851e-10
4.052503e-09	 -1.144167e-09	 1.076365e-15
3.777376e-09	 -1.075200e-09	 -1.878387e-10
0	 0	 -4.959443e-10
3.777369e-09	 -1.075194e-09	 1.878402e-10
2.885221e-09	 -7.757497e-10	 3.100965e-10
0	 0	 -1.524413e-10
-6.214985e-10	 -1.250207e-09	 -1.077931e-10
-6.215164e-10	 -1.250214e-09	 1.077934e-10
0	 0	 1.524441e-10
0	 0	 4.385419e-10
2.885230e-09	 -7.757585e-10	 -3.100963e-10
0	 0	 -4.385432e-10
-8.789442e-10	 -1.768064e-09	 -1.136340e-15
4.080325e-09	 -1.097082e-09	 8.906557e-16
-7.757482e-10	 -1.764911e-09	 -5.100816e-11
-3.213350e-10	 -7.310538e-10	 1.231440e-10
0	 0	 -1.324237e-10
-3.213215e-10	 -7.310487e-10	 -1.231424e-10
-8.245150e-10	 -1.912018e-09	 -8.375913e-16
0	 0	 1.324258e-10
1.584276e-09	 -4.080743e-10	 -3.540949e-10
3.824768e-09	 -9.851670e-10	 1.466713e-10
0	 0	 3.813429e-10
1.584269e-09	 -4.080675e-10	 3.540943e-10
0	 0	 -3.813438e-10
-5.830112e-10	 -1.351997e-09	 -9.363832e-11
-7.757617e-10	 -1.764916e-09	 5.100704e-11
3.824775e-09	 -9.851738e-10	 -1.466702e-10
4.105505e-09	 -1.049066e-09	 7.059304e-16
-5.830291e-10	 -1.352004e-09	 9.363857e-11
2.903026e-09	 -7.417971e-10	 2.696506e-10
2.903035e-09	 -7.418064e-10	 -2.696504e-10
4.129386e-09	 -1.001332e-09	 5.210917e-16
-7.702202e-10	 -2.054379e-09	 -5.384359e-16
0	 0	 -1.124088e-10
0	 0	 1.124104e-10
0	 0	 3.240518e-10
0	 0	 -3.240523e-10
-5.446369e-10	 -1.452669e-09	 7.948572e-11
-5.446189e-10	 -1.452662e-09	 -7.948547e-11
2.919921e-09	 -7.080535e-10	 -2.291393e-10
2.919912e-09	 -7.080435e-10	 2.291395e-10
-6.729319e-10	 -2.028255e-09	 -3.663924e-11
-6.729454e-10	 -2.028260e-09	 3.663880e-11
-2.787471e-10	 -8.401341e-10	 8.845489e-11
-5.051610e-10	 -1.553591e-09	 6.526592e-11
3.864270e-09	 -8.930662e-10	 1.053975e-10
0	 0	 -9.229928e-11
0	 0	 9.230025e-11
-2.787335e-10	 -8.401291e-10	 -8.845396e-11
-5.051430e-10	 -1.553584e-09	 -6.526567e-11
1.600631e-09	 -3.699179e-10	 2.544512e-10
2.934772e-09	 -6.731557e-10	 1.884478e-10
2.934781e-09	 -6.731662e-10	 -1.884476e-10
1.600638e-09	 -3.699255e-10	 -2.544514e-10
0	 0	 2.665052e-10
3.864277e-09	 -8.930738e-10	 -1.053968e-10
0	 0	 -2.665054e-10
-7.143928e-10	 -2.197105e-09	 -2.370270e-16
4.150401e-09	 -9.519934e-10	 3.348032e-16
0	 0	 -4.339908e-10
-1.858727e-09	 -1.838393e-09	 -3.068787e-10
-2.628648e-09	 -2.599884e-09	 -1.153901e-15
-1.858742e-09	 -1.838399e-09	 3.068790e-10
0	 0	 4.339936e-10
0	 0	 3.140918e-10
1.963069e-09	 -4.251232e-10	 2.220976e-10
2.776210e-09	 -6.012233e-10	 1.683042e-15
1.963085e-09	 -4.251350e-10	 -2.220974e-10
0	 0	 -3.140947e-10
-1.795259e-09	 -1.940038e-09	 -2.374778e-10
2.055555e-09	 -2.873554e-10	 1.713954e-10
-2.538890e-09	 -2.743631e-09	 -6.838602e-16
-1.795274e-09	 -1.940043e-09	 2.374781e-10
2.907005e-09	 -4.063906e-10	 1.104521e-15
2.055570e-09	 -2.873676e-10	 -1.713952e-10
0	 0	 -3.358436e-10
0	 0	 3.358455e-10
0	 0	 2.423887e-10
0	 0	 -2.423905e-10
-1.725777e-09	 -2.038781e-09	 -1.680917e-10
2.144338e-09	 -1.456730e-10	 1.207327e-10
0	 0	 -2.377172e-10
-2.440628e-09	 -2.883275e-09	 -2.134208e-16
-1.725793e-09	 -2.038785e-09	 1.680919e-10
0	 0	 2.377182e-10
0	 0	 1.707414e-10
3.032563e-09	 -2.060216e-10	 5.253709e-16
2.144353e-09	 -1.456856e-10	 -1.207325e-10
0	 0	 -1.707420e-10
0	 0	 -5.290645e-10
-1.213040e-09	 -1.224230e-09	 -4.841221e-10
-2.219201e-09	 -2.239708e-09	 -3.741054e-10
-2.928542e-09	 -2.955552e-09	 -2.005303e-10
-3.138430e-09	 -3.167426e-09	 -3.239451e-16
-2.928547e-09	 -2.955553e-09	 2.005299e-10
-2.219209e-09	 -2.239709e-09	 3.741056e-10
-1.213045e-09	 -1.224230e-09	 4.841229e-10
0	 0	 5.290657e-10
0	 0	 -1.419998e-12
3.374051e-10	 3.260651e-10	 -1.287446e-12
6.271780e-10	 6.066314e-10	 -1.002989e-12
8.145756e-10	 7.871844e-10	 -5.318176e-13
8.869737e-10	 8.578979e-10	 1.624129e-15
8.145862e-10	 7.871753e-10	 5.340163e-13
6.271922e-10	 6.066195e-10	 1.003218e-12
3.374158e-10	 3.260561e-10	 1.285705e-12
0	 0	 1.417207e-12
-2.219571e-09	 -2.248768e-09	 -3.309375e-10
7.114270e-10	 6.907509e-10	 -1.172924e-12
0	 0	 -4.680160e-10
-2.219579e-09	 -2.248768e-09	 3.309377e-10
0	 0	 4.680170e-10
0	 0	 -1.660033e-12
7.114413e-10	 6.907391e-10	 1.173152e-12
0	 0	 1.657820e-12
-3.138953e-09	 -3.180238e-09	 -2.377236e-16
1.006120e-09	 9.768610e-10	 1.335096e-15
-1.212020e-09	 -1.232369e-09	 -3.782687e-10
-1.212026e-09	 -1.232368e-09	 3.782693e-10
0	 0	 -4.071752e-10
-3.137502e-09	 -3.190902e-09	 -1.518875e-16
-2.218553e-09	 -2.256308e-09	 2.879168e-10
0	 0	 4.071761e-10
4.282486e-10	 4.168683e-10	 -1.808133e-12
4.282595e-10	 4.168595e-10	 1.807042e-12
-2.926085e-09	 -2.975201e-09	 1.566841e-10
1.033902e-09	 1.006394e-09	 7.495013e-13
-2.218545e-09	 -2.256309e-09	 -2.879165e-10
-2.926079e-09	 -2.975201e-09	 -1.566842e-10
0	 0	 -1.889928e-12
1.124727e-09	 1.095443e-09	 1.047404e-15
7.953090e-10	 7.745894e-10	 1.335916e-12
0	 0	 1.888291e-12
7.952945e-10	 7.746011e-10	 -1.335688e-12
1.033891e-09	 1.006403e-09	 -7.479531e-13
8.783892e-10	 8.576788e-10	 -1.498794e-12
-2.216936e-09	 -2.263228e-09	 -2.448452e-10
0	 0	 -3.462633e-10
-3.135227e-09	 -3.200687e-09	 -6.596423e-17
0	 0	 3.462639e-10
0	 0	 -2.120307e-12
1.242240e-09	 1.212933e-09	 7.594288e-16
0	 0	 2.119245e-12
8.784040e-10	 8.576672e-10	 1.499022e-12
-2.216945e-09	 -2.263227e-09	 2.448455e-10
-1.208544e-09	 -1.237982e-09	 2.721868e-10
5.183576e-10	 5.070596e-10	 2.330450e-12
0	 0	 -2.850844e-10
-1.208537e-09	 -1.237983e-09	 -2.721864e-10
-2.213596e-09	 -2.268493e-09	 -2.015851e-10
-2.917671e-09	 -2.988754e-09	 -1.127433e-10
-2.917678e-09	 -2.988753e-09	 1.127434e-10
0	 0	 2.850848e-10
-2.213605e-09	 -2.268491e-09	 2.015854e-10
1.360312e-09	 1.331194e-09	 4.692958e-16
0	 0	 -2.360550e-12
5.183465e-10	 5.070683e-10	 -2.330888e-12
9.618787e-10	 9.413019e-10	 -1.668876e-12
1.251407e-09	 1.224165e-09	 -9.649470e-13
1.251418e-09	 1.224156e-09	 9.658423e-13
0	 0	 2.360068e-12
-3.130504e-09	 -3.208132e-09	 2.058933e-17
9.618936e-10	 9.412905e-10	 1.669105e-12
0	 0	 -4.528333e-10
-1.904857e-09	 -2.002141e-09	 -3.202011e-10
-2.693875e-09	 -2.831449e-09	 6.354884e-16
-1.904858e-09	 -2.002133e-09	 3.202013e-10
0	 0	 4.528325e-10
0	 0	 -3.189388e-10
-4.295986e-10	 1.962776e-09	 -2.255231e-10
-6.075370e-10	 2.775779e-09	 1.120825e-15
-4.295884e-10	 1.962768e-09	 2.255233e-10
0	 0	 3.189370e-10
-2.824930e-09	 -2.750355e-09	 4.508206e-16
-1.997528e-09	 -1.944791e-09	 2.467151e-10
0	 0	 -2.470251e-10
0	 0	 2.470240e-10
-4.042522e-10	 2.912064e-09	 7.473682e-16
-2.858439e-10	 2.059136e-09	 1.746728e-10
-1.997526e-09	 -1.944799e-09	 -2.467148e-10
0	 0	 -3.489078e-10
0	 0	 3.489074e-10
-2.858550e-10	 2.059144e-09	 -1.746726e-10
-1.383316e-10	 2.152136e-09	 -1.238580e-10
-2.086665e-09	 -1.880664e-09	 -1.732528e-10
0	 0	 -2.450167e-10
-2.950992e-09	 -2.659654e-09	 2.660975e-16
-2.086668e-09	 -1.880655e-09	 1.732531e-10
0	 0	 2.450166e-10
0	 0	 -1.751620e-10
-1.956220e-10	 3.043575e-09	 3.734358e-16
-1.383197e-10	 2.152129e-09	 1.238582e-10
0	 0	 1.751617e-10
-1.581758e-09	 -1.097224e-09	 -7.388717e-11
-1.129344e-09	 3.864470e-09	 -1.913825e-10
0	 0	 -1.949437e-10
-1.210671e-09	 -8.267916e-10	 -1.378451e-10
-1.712146e-09	 -1.169249e-09	 1.368073e-15
-1.581756e-09	 -1.097213e-09	 7.388903e-11
0	 0	 1.949415e-10
0	 0	 -5.053292e-10
-8.505187e-10	 2.931346e-09	 -3.573216e-10
-1.202811e-09	 4.145550e-09	 1.902106e-16
-1.129340e-09	 3.864471e-09	 1.913828e-10
-8.505133e-10	 2.931347e-09	 3.573219e-10
-4.677868e-10	 1.600716e-09	 4.620386e-10
0	 0	 5.053293e-10
-6.551862e-10	 -4.544885e-10	 -1.783823e-10
-1.210669e-09	 -8.267765e-10	 1.378453e-10
-6.551840e-10	 -4.544772e-10	 1.783810e-10
-4.677906e-10	 1.600716e-09	 -4.620385e-10
-1.861298e-09	 -1.114754e-09	 1.130820e-15
-1.148664e-09	 4.176447e-09	 1.735744e-16
-1.316138e-09	 -7.882578e-10	 -1.212478e-10
0	 0	 -1.714713e-10
-1.316135e-09	 -7.882424e-10	 1.212480e-10
0	 0	 1.714696e-10
0	 0	 -4.464741e-10
-8.122315e-10	 2.953194e-09	 -3.157048e-10
-8.122254e-10	 2.953195e-09	 3.157050e-10
0	 0	 4.464742e-10
-1.420844e-09	 -7.488573e-10	 1.047337e-10
-7.733708e-10	 2.973027e-09	 2.742391e-10
-1.026746e-09	 3.917120e-09	 -1.491444e-10
-4.252888e-10	 1.622525e-09	 3.600669e-10
0	 0	 -1.481163e-10
-7.686726e-10	 -4.119451e-10	 -1.376304e-10
0	 0	 1.481150e-10
-2.009379e-09	 -1.059055e-09	 8.946311e-16
0	 0	 -3.878324e-10
-4.252935e-10	 1.622524e-09	 -3.600667e-10
-1.093716e-09	 4.204494e-09	 1.571552e-16
0	 0	 3.878325e-10
-1.855739e-09	 -9.945152e-10	 -5.700752e-11
-1.855737e-09	 -9.945036e-10	 5.700886e-11
-1.420846e-09	 -7.488729e-10	 -1.047335e-10
-7.733775e-10	 2.973025e-09	 -2.742389e-10
-1.026741e-09	 3.917121e-09	 1.491447e-10
-7.686710e-10	 -4.119335e-10	 1.376295e-10
-2.155862e-09	 -1.003436e-09	 6.580296e-16
-1.524424e-09	 -7.095284e-10	 8.821771e-11
-7.347174e-10	 2.991938e-09	 2.327055e-10
0	 0	 -3.290950e-10
0	 0	 3.290952e-10
-1.039053e-09	 4.231238e-09	 1.408842e-16
0	 0	 -1.247589e-10
0	 0	 1.247581e-10
-1.524426e-09	 -7.095441e-10	 -8.821745e-11
-7.347248e-10	 2.991936e-09	 -2.327053e-10
-2.126141e-09	 -8.887091e-10	 -4.011696e-11
0	 0	 -1.012736e-10
-2.126140e-09	 -8.886972e-10	 4.011777e-11
0	 0	 1.012733e-10
-2.302566e-09	 -9.458233e-10	 4.196900e-16
0	 0	 -2.700888e-10
0	 0	 2.700890e-10
-9.220377e-10	 3.961537e-09	 -1.067974e-10
-9.220320e-10	 3.961538e-09	 1.067977e-10
-3.819165e-10	 1.640923e-09	 2.578322e-10
-8.806767e-10	 -3.681188e-10	 -9.685203e-11
-1.628161e-09	 -6.688060e-10	 -7.161099e-11
-1.628160e-09	 -6.687901e-10	 7.161125e-11
-8.806757e-10	 -3.681070e-10	 9.685174e-11
-9.826161e-10	 4.254983e-09	 1.244058e-16
-3.819222e-10	 1.640922e-09	 -2.578320e-10
-6.948104e-10	 3.008729e-09	 1.909818e-10
-6.948186e-10	 3.008727e-09	 -1.909816e-10
-7.269223e-10	 8.299898e-10	 8.412058e-11
-8.037566e-10	 3.140055e-09	 -3.775908e-10
0	 0	 1.189628e-10
-1.028021e-09	 1.173797e-09	 1.748235e-15
0	 0	 -1.189658e-10
0	 0	 -5.339933e-10
-1.136682e-09	 4.440717e-09	 -7.470942e-16
0	 0	 5.339952e-10
-7.269190e-10	 8.300095e-10	 -8.412032e-11
-8.037542e-10	 3.140066e-09	 3.775911e-10
-9.392649e-10	 8.701784e-10	 6.562734e-11
0	 0	 9.281000e-11
0	 0	 -9.281177e-11
-8.495657e-10	 3.135444e-09	 -2.900976e-10
-8.495621e-10	 3.135455e-09	 2.900978e-10
0	 0	 -4.102594e-10
0	 0	 4.102608e-10
-9.392617e-10	 8.701982e-10	 -6.562708e-11
-1.201465e-09	 4.434195e-09	 -4.318640e-16
-1.328319e-09	 1.230632e-09	 1.146556e-15
-1.264174e-09	 4.414545e-09	 -1.165860e-16
0	 0	 6.671972e-11
-1.631303e-09	 1.285962e-09	 5.443608e-16
0	 0	 -6.672028e-11
0	 0	 -2.865826e-10
0	 0	 2.865833e-10
-1.153504e-09	 9.093224e-10	 -4.717803e-11
-1.153507e-09	 9.093026e-10	 4.717830e-11
-8.939086e-10	 3.121549e-09	 -2.026446e-10
-8.939038e-10	 3.121560e-09	 2.026448e-10
0	 0	 3.775176e-10
-3.376211e-10	 1.255267e-09	 3.454843e-10
-6.280553e-10	 2.297805e-09	 2.669463e-10
-8.150881e-10	 3.030492e-09	 1.431057e-10
-8.882026e-10	 3.249599e-09	 1.519122e-15
-8.150865e-10	 3.030505e-09	 -1.431036e-10
-6.280529e-10	 2.297822e-09	 -2.669460e-10
-3.376194e-10	 1.255280e-09	 -3.454859e-10
0	 0	 -3.775201e-10
0	 0	 3.330998e-10
-1.018149e-09	 3.256628e-09	 1.251329e-15
0	 0	 -3.331017e-10
-7.199386e-10	 2.302792e-09	 -2.355377e-10
-7.199413e-10	 2.302775e-09	 2.355379e-10
-8.113904e-10	 2.305952e-09	 2.042656e-10
-1.055374e-09	 3.039397e-09	 1.111688e-10
0	 0	 2.888742e-10
-4.371510e-10	 1.258956e-09	 2.683830e-10
-1.055372e-09	 3.039410e-09	 -1.111673e-10
-4.371488e-10	 1.258969e-09	 -2.683839e-10
0	 0	 -2.888757e-10
-1.147477e-09	 3.261121e-09	 9.849836e-16
-8.113873e-10	 2.305969e-09	 -2.042653e-10
-1.275587e-09	 3.264333e-09	 7.181260e-16
-9.019744e-10	 2.308241e-09	 -1.729336e-10
0	 0	 2.445648e-10
-9.019779e-10	 2.308223e-09	 1.729339e-10
0	 0	 -2.445657e-10
0	 0	 2.000386e-10
-5.359331e-10	 1.259441e-09	 1.910867e-10
-1.293855e-09	 3.040569e-09	 7.915121e-11
-1.404615e-09	 3.264617e-09	 4.491790e-16
-1.293852e-09	 3.040582e-09	 -7.915034e-11
-9.932105e-10	 2.308441e-09	 -1.414487e-10
-5.359304e-10	 1.259454e-09	 -1.910870e-10
0	 0	 -2.000390e-10
-9.932144e-10	 2.308424e-09	 1.414489e-10
-9.932146e-10	 2.308426e-09	 -1.414491e-10
0	 0	 -2.000389e-10
-5.359332e-10	 1.259442e-09	 -1.910869e-10
-1.293855e-09	 3.040572e-09	 -7.915117e-11
-1.404615e-09	 3.264620e-09	 -2.160130e-16
-1.293853e-09	 3.040585e-09	 7.915077e-11
-9.932107e-10	 2.308444e-09	 1.414493e-10
-5.359305e-10	 1.259456e-09	 1.910878e-10
0	 0	 2.000398e-10
0	 0	 -2.445651e-10
-9.019780e-10	 2.308225e-09	 -1.729340e-10
0	 0	 2.445665e-10
-1.275587e-09	 3.264336e-09	 -4.940728e-16
-9.019745e-10	 2.308243e-09	 1.729342e-10
-1.147477e-09	 3.261124e-09	 -7.699577e-16
-8.113874e-10	 2.305971e-09	 2.042659e-10
0	 0	 -2.888745e-10
-4.371510e-10	 1.258957e-09	 -2.683832e-10
-1.055372e-09	 3.039413e-09	 1.111678e-10
-4.371488e-10	 1.258970e-09	 2.683847e-10
0	 0	 2.888765e-10
-8.113906e-10	 2.305954e-09	 -2.042657e-10
-1.055374e-09	 3.039399e-09	 -1.111688e-10
-7.199414e-10	 2.302777e-09	 -2.355381e-10
-7.199386e-10	 2.302795e-09	 2.355384e-10
0	 0	 -3.331001e-10
-1.018149e-09	 3.256631e-09	 -1.045313e-15
0	 0	 3.331027e-10
0	 0	 -3.775180e-10
-3.376211e-10	 1.255268e-09	 -3.454847e-10
-6.280553e-10	 2.297807e-09	 -2.669465e-10
-8.150881e-10	 3.030495e-09	 -1.431057e-10
-8.882026e-10	 3.249602e-09	 -1.322180e-15
-8.150864e-10	 3.030508e-09	 1.431040e-10
-6.280529e-10	 2.297824e-09	 2.669467e-10
-3.376194e-10	 1.255282e-09	 3.454868e-10
0	 0	 3.775211e-10
-8.939083e-10	 3.121546e-09	 2.026445e-10
-8.939037e-10	 3.121557e-09	 -2.026443e-10
-1.153507e-09	 9.093037e-10	 -4.717838e-11
-1.153504e-09	 9.093242e-10	 4.717861e-11
0	 0	 2.865823e-10
0	 0	 -2.865825e-10
0	 0	 -6.671993e-11
-1.631303e-09	 1.285964e-09	 -3.130199e-16
0	 0	 6.672100e-11
-1.264174e-09	 4.414541e-09	 3.516887e-16
-1.328319e-09	 1.230634e-09	 -9.340211e-16
-1.201465e-09	 4.434191e-09	 6.555829e-16
-9.392618e-10	 8.702000e-10	 6.562769e-11
0	 0	 4.102591e-10
0	 0	 -4.102599e-10
-8.495655e-10	 3.135441e-09	 2.900974e-10
-8.495620e-10	 3.135452e-09	 -2.900971e-10
0	 0	 -9.281026e-11
0	 0	 9.281257e-11
-9.392651e-10	 8.701795e-10	 -6.562747e-11
-8.037541e-10	 3.140063e-09	 -3.775903e-10
-7.269191e-10	 8.300113e-10	 8.412098e-11
0	 0	 5.339929e-10
-1.136682e-09	 4.440713e-09	 9.594428e-16
0	 0	 -5.339943e-10
0	 0	 -1.189631e-10
-1.028021e-09	 1.173799e-09	 -1.554502e-15
0	 0	 1.189666e-10
-8.037565e-10	 3.140053e-09	 3.775906e-10
-7.269225e-10	 8.299910e-10	 -8.412075e-11
-6.948182e-10	 3.008723e-09	 1.909816e-10
-6.948103e-10	 3.008725e-09	 -1.909813e-10
-3.819220e-10	 1.640920e-09	 2.578319e-10
-9.826157e-10	 4.254979e-09	 1.161920e-16
-8.806767e-10	 -3.681182e-10	 9.685191e-11
-1.628161e-09	 -6.688047e-10	 7.161096e-11
-1.628160e-09	 -6.687884e-10	 -7.161073e-11
-8.806758e-10	 -3.681060e-10	 -9.685113e-11
-9.220373e-10	 3.961533e-09	 1.067975e-10
-9.220317e-10	 3.961534e-09	 -1.067973e-10
-3.819164e-10	 1.640922e-09	 -2.578316e-10
0	 0	 2.700887e-10
0	 0	 -2.700884e-10
-2.302567e-09	 -9.458212e-10	 -1.829973e-16
0	 0	 1.012734e-10
-2.126140e-09	 -8.886951e-10	 -4.011738e-11
0	 0	 -1.012726e-10
-2.126141e-09	 -8.887073e-10	 4.011705e-11
-7.347245e-10	 2.991933e-09	 2.327052e-10
-1.524426e-09	 -7.095428e-10	 8.821740e-11
0	 0	 1.247587e-10
0	 0	 -1.247574e-10
-1.039052e-09	 4.231233e-09	 9.906035e-17
0	 0	 3.290948e-10
0	 0	 -3.290945e-10
-7.347172e-10	 2.991935e-09	 -2.327049e-10
-1.524424e-09	 -7.095267e-10	 -8.821718e-11
-2.155863e-09	 -1.003434e-09	 -4.268580e-16
-7.686711e-10	 -4.119325e-10	 -1.376289e-10
-7.733772e-10	 2.973022e-09	 2.742387e-10
-1.026741e-09	 3.917117e-09	 -1.491443e-10
-1.420846e-09	 -7.488716e-10	 1.047334e-10
-1.855737e-09	 -9.945015e-10	 -5.700846e-11
-1.855739e-09	 -9.945134e-10	 5.700758e-11
0	 0	 3.878321e-10
-4.252933e-10	 1.622522e-09	 3.600665e-10
-1.093716e-09	 4.204489e-09	 8.211921e-17
0	 0	 -3.878318e-10
-2.009379e-09	 -1.059053e-09	 -6.689318e-16
0	 0	 1.481161e-10
-7.686727e-10	 -4.119444e-10	 1.376302e-10
0	 0	 -1.481143e-10
-1.026746e-09	 3.917116e-09	 1.491444e-10
-4.252887e-10	 1.622523e-09	 -3.600662e-10
-7.733706e-10	 2.973024e-09	 -2.742385e-10
-1.420845e-09	 -7.488556e-10	 -1.047332e-10
0	 0	 4.464737e-10
-8.122312e-10	 2.953190e-09	 3.157046e-10
-8.122252e-10	 2.953192e-09	 -3.157043e-10
0	 0	 -4.464734e-10
0	 0	 1.714711e-10
-1.316136e-09	 -7.882408e-10	 -1.212475e-10
0	 0	 -1.714688e-10
-1.316138e-09	 -7.882565e-10	 1.212477e-10
-1.148664e-09	 4.176443e-09	 6.503875e-17
-1.861298e-09	 -1.114752e-09	 -9.105809e-16
-4.677904e-10	 1.600714e-09	 4.620382e-10
-6.551863e-10	 -4.544879e-10	 1.783821e-10
-1.210669e-09	 -8.267749e-10	 -1.378448e-10
-6.551841e-10	 -4.544763e-10	 -1.783803e-10
0	 0	 5.053288e-10
-8.505184e-10	 2.931343e-09	 3.573214e-10
-1.202811e-09	 4.145546e-09	 4.776926e-17
-1.129340e-09	 3.864467e-09	 -1.913823e-10
-8.505132e-10	 2.931344e-09	 -3.573212e-10
-4.677867e-10	 1.600715e-09	 -4.620378e-10
0	 0	 -5.053284e-10
0	 0	 1.949435e-10
-1.210671e-09	 -8.267903e-10	 1.378450e-10
-1.712146e-09	 -1.169247e-09	 -1.153327e-15
-1.581756e-09	 -1.097211e-09	 -7.388862e-11
0	 0	 -1.949407e-10
-1.129343e-09	 3.864466e-09	 1.913825e-10
-1.581758e-09	 -1.097223e-09	 7.388720e-11
0	 0	 1.751620e-10
-1.956221e-10	 3.043570e-09	 -1.274682e-16