# vtk DataFile Version 3.0
Unstructured Grid Example
ASCII
DATASET UNSTRUCTURED_GRID
POINTS 832 float
-1	 0	 0
-1	 0	 3.750000e-01
-1	 0	 7.500000e-01
-1	 0	 1.125000e+00
-1	 0	 1.500000e+00
-1	 0	 1.875000e+00
-1	 0	 2.250000e+00
-1	 0	 2.625000e+00
-1	 0	 3
-9.875000e-01	 0	 0
-9.875000e-01	 0	 1.500000e+00
-9.875000e-01	 0	 3
-9.875000e-01	 0	 2.250000e+00
-9.875000e-01	 0	 7.500000e-01
-9.833054e-01	 -1.819631e-01	 7.500000e-01
-9.833054e-01	 -1.819631e-01	 0
-9.833054e-01	 -1.819631e-01	 1.500000e+00
-9.833054e-01	 -1.819631e-01	 3.000000e+00
-9.833054e-01	 1.819631e-01	 2.250000e+00
-9.833054e-01	 1.819631e-01	 0
-9.833054e-01	 1.819631e-01	 1.500000e+00
-9.833054e-01	 1.819631e-01	 3.000000e+00
-9.833054e-01	 1.819631e-01	 7.500000e-01
-9.833054e-01	 -1.819631e-01	 2.250000e+00
-9.750000e-01	 0	 7.500000e-01
-9.750000e-01	 0	 1.125000e+00
-9.750000e-01	 0	 0
-9.750000e-01	 0	 3.750000e-01
-9.750000e-01	 0	 1.875000e+00
-9.750000e-01	 0	 2.625000e+00
-9.750000e-01	 0	 3
-9.750000e-01	 0	 1.500000e+00
-9.750000e-01	 0	 2.250000e+00
-9.625000e-01	 0	 1.500000e+00
-9.625000e-01	 0	 2.250000e+00
-9.625000e-01	 0	 0
-9.625000e-01	 0	 7.500000e-01
-9.625000e-01	 0	 3
-9.587227e-01	 -1.774140e-01	 0
-9.587227e-01	 -1.774140e-01	 3.000000e+00
-9.587227e-01	 -1.774140e-01	 1.500000e+00
-9.587227e-01	 1.774140e-01	 0
-9.587227e-01	 1.774140e-01	 3.000000e+00
-9.587227e-01	 1.774140e-01	 1.500000e+00
-9.587227e-01	 1.774140e-01	 7.500000e-01
-9.587227e-01	 -1.774140e-01	 7.500000e-01
-9.587227e-01	 -1.774140e-01	 2.250000e+00
-9.587227e-01	 1.774140e-01	 2.250000e+00
-9.500000e-01	 0	 0
-9.500000e-01	 0	 3.750000e-01
-9.500000e-01	 0	 1.125000e+00
-9.500000e-01	 0	 1.500000e+00
-9.500000e-01	 0	 1.875000e+00
-9.500000e-01	 0	 2.250000e+00
-9.500000e-01	 0	 2.625000e+00
-9.500000e-01	 0	 3
-9.500000e-01	 0	 7.500000e-01
-9.341401e-01	 -1.728649e-01	 1.500000e+00
-9.341401e-01	 -1.728649e-01	 0
-9.341401e-01	 -1.728649e-01	 3.000000e+00
-9.341401e-01	 1.728649e-01	 2.250000e+00
-9.341401e-01	 1.728649e-01	 0
-9.341401e-01	 1.728649e-01	 1.500000e+00
-9.341401e-01	 1.728649e-01	 3.000000e+00
-9.341401e-01	 -1.728649e-01	 7.500000e-01
-9.341401e-01	 -1.728649e-01	 2.250000e+00
-9.341401e-01	 1.728649e-01	 7.500000e-01
-9.297883e-01	 -3.680947e-01	 1.125000e+00
-9.297883e-01	 -3.680947e-01	 0
-9.297883e-01	 -3.680947e-01	 7.500000e-01
-9.297883e-01	 -3.680947e-01	 1.500000e+00
-9.297883e-01	 -3.680947e-01	 1.875000e+00
-9.297883e-01	 -3.680947e-01	 2.250000e+00
-9.297883e-01	 -3.680947e-01	 2.625000e+00
-9.297883e-01	 -3.680947e-01	 3.000000e+00
-9.297883e-01	 -3.680947e-01	 3.750000e-01
-9.297883e-01	 3.680947e-01	 3.750000e-01
-9.297883e-01	 3.680947e-01	 2.250000e+00
-9.297883e-01	 3.680947e-01	 2.625000e+00
-9.297883e-01	 3.680947e-01	 0
-9.297883e-01	 3.680947e-01	 7.500000e-01
-9.297883e-01	 3.680947e-01	 1.500000e+00
-9.297883e-01	 3.680947e-01	 1.875000e+00
-9.297883e-01	 3.680947e-01	 3.000000e+00
-9.297883e-01	 3.680947e-01	 1.125000e+00
-9.181659e-01	 3.634935e-01	 7.500000e-01
-9.181659e-01	 -3.634935e-01	 0
-9.181659e-01	 -3.634935e-01	 7.500000e-01
-9.181659e-01	 -3.634935e-01	 2.250000e+00
-9.181659e-01	 -3.634935e-01	 3
-9.181659e-01	 3.634935e-01	 0
-9.181659e-01	 3.634935e-01	 2.250000e+00
-9.181659e-01	 3.634935e-01	 3
-9.181659e-01	 -3.634935e-01	 1.500000e+00
-9.181659e-01	 3.634935e-01	 1.500000e+00
-9.065436e-01	 -3.588923e-01	 1.125000e+00
-9.065436e-01	 -3.588923e-01	 2.625000e+00
-9.065436e-01	 -3.588923e-01	 0
-9.065436e-01	 -3.588923e-01	 3.750000e-01
-9.065436e-01	 -3.588923e-01	 1.500000e+00
-9.065436e-01	 -3.588923e-01	 3
-9.065436e-01	 3.588923e-01	 2.625000e+00
-9.065436e-01	 3.588923e-01	 1.125000e+00
-9.065436e-01	 3.588923e-01	 0
-9.065436e-01	 3.588923e-01	 3.750000e-01
-9.065436e-01	 3.588923e-01	 3
-9.065436e-01	 -3.588923e-01	 7.500000e-01
-9.065436e-01	 -3.588923e-01	 1.875000e+00
-9.065436e-01	 3.588923e-01	 1.875000e+00
-9.065436e-01	 3.588923e-01	 1.500000e+00
-9.065436e-01	 -3.588923e-01	 2.250000e+00
-9.065436e-01	 3.588923e-01	 7.500000e-01
-9.065436e-01	 3.588923e-01	 2.250000e+00
-8.949212e-01	 3.542912e-01	 1.500000e+00
-8.949212e-01	 -3.542912e-01	 1.500000e+00
-8.949212e-01	 -3.542912e-01	 0
-8.949212e-01	 -3.542912e-01	 3.000000e+00
-8.949212e-01	 3.542912e-01	 0
-8.949212e-01	 3.542912e-01	 3.000000e+00
-8.949212e-01	 -3.542912e-01	 2.250000e+00
-8.949212e-01	 -3.542912e-01	 7.500000e-01
-8.949212e-01	 3.542912e-01	 2.250000e+00
-8.949212e-01	 3.542912e-01	 7.500000e-01
-8.832989e-01	 -3.496900e-01	 1.125000e+00
-8.832989e-01	 -3.496900e-01	 1.875000e+00
-8.832989e-01	 -3.496900e-01	 2.625000e+00
-8.832989e-01	 -3.496900e-01	 2.250000e+00
-8.832989e-01	 3.496900e-01	 1.125000e+00
-8.832989e-01	 -3.496900e-01	 0
-8.832989e-01	 -3.496900e-01	 3.000000e+00
-8.832989e-01	 -3.496900e-01	 3.750000e-01
-8.832989e-01	 -3.496900e-01	 7.500000e-01
-8.832989e-01	 3.496900e-01	 3.750000e-01
-8.832989e-01	 3.496900e-01	 7.500000e-01
-8.832989e-01	 3.496900e-01	 2.250000e+00
-8.832989e-01	 3.496900e-01	 2.625000e+00
-8.832989e-01	 3.496900e-01	 0
-8.832989e-01	 3.496900e-01	 1.875000e+00
-8.832989e-01	 3.496900e-01	 3.000000e+00
-8.832989e-01	 -3.496900e-01	 1.500000e+00
-8.832989e-01	 3.496900e-01	 1.500000e+00
-8.369955e-01	 -5.472098e-01	 0
-8.369955e-01	 -5.472098e-01	 7.500000e-01
-8.369955e-01	 -5.472098e-01	 1.500000e+00
-8.369955e-01	 -5.472098e-01	 2.250000e+00
-8.369955e-01	 -5.472098e-01	 3
-8.369955e-01	 5.472098e-01	 0
-8.369955e-01	 5.472098e-01	 7.500000e-01
-8.369955e-01	 5.472098e-01	 1.500000e+00
-8.369955e-01	 5.472098e-01	 2.250000e+00
-8.369955e-01	 5.472098e-01	 3
-8.160706e-01	 -5.335295e-01	 7.500000e-01
-8.160706e-01	 5.335295e-01	 7.500000e-01
-8.160706e-01	 -5.335295e-01	 1.500000e+00
-8.160706e-01	 -5.335295e-01	 2.250000e+00
-8.160706e-01	 5.335295e-01	 1.500000e+00
-8.160706e-01	 5.335295e-01	 2.250000e+00
-8.160706e-01	 -5.335295e-01	 0
-8.160706e-01	 -5.335295e-01	 3.000000e+00
-8.160706e-01	 5.335295e-01	 0
-8.160706e-01	 5.335295e-01	 3.000000e+00
-7.951457e-01	 -5.198493e-01	 7.500000e-01
-7.951457e-01	 5.198493e-01	 7.500000e-01
-7.951457e-01	 -5.198493e-01	 0
-7.951457e-01	 -5.198493e-01	 1.500000e+00
-7.951457e-01	 -5.198493e-01	 2.250000e+00
-7.951457e-01	 -5.198493e-01	 3
-7.951457e-01	 5.198493e-01	 0
-7.951457e-01	 5.198493e-01	 1.500000e+00
-7.951457e-01	 5.198493e-01	 2.250000e+00
-7.951457e-01	 5.198493e-01	 3
-7.071068e-01	 -7.071068e-01	 0
-7.071068e-01	 -7.071068e-01	 3.750000e-01
-7.071068e-01	 -7.071068e-01	 7.500000e-01
-7.071068e-01	 -7.071068e-01	 1.125000e+00
-7.071068e-01	 -7.071068e-01	 1.500000e+00
-7.071068e-01	 -7.071068e-01	 1.875000e+00
-7.071068e-01	 -7.071068e-01	 2.250000e+00
-7.071068e-01	 -7.071068e-01	 2.625000e+00
-7.071068e-01	 -7.071068e-01	 3.000000e+00
-7.071068e-01	 7.071068e-01	 0
-7.071068e-01	 7.071068e-01	 3.750000e-01
-7.071068e-01	 7.071068e-01	 7.500000e-01
-7.071068e-01	 7.071068e-01	 1.125000e+00
-7.071068e-01	 7.071068e-01	 1.500000e+00
-7.071068e-01	 7.071068e-01	 1.875000e+00
-7.071068e-01	 7.071068e-01	 2.250000e+00
-7.071068e-01	 7.071068e-01	 2.625000e+00
-7.071068e-01	 7.071068e-01	 3.000000e+00
-6.982679e-01	 -6.982679e-01	 7.500000e-01
-6.982679e-01	 6.982679e-01	 7.500000e-01
-6.982679e-01	 -6.982679e-01	 0
-6.982679e-01	 -6.982679e-01	 2.250000e+00
-6.982679e-01	 -6.982679e-01	 3.000000e+00
-6.982679e-01	 6.982679e-01	 0
-6.982679e-01	 6.982679e-01	 2.250000e+00
-6.982679e-01	 6.982679e-01	 3.000000e+00
-6.982679e-01	 -6.982679e-01	 1.500000e+00
-6.982679e-01	 6.982679e-01	 1.500000e+00
-6.894291e-01	 -6.894291e-01	 3.750000e-01
-6.894291e-01	 -6.894291e-01	 2.625000e+00
-6.894291e-01	 -6.894291e-01	 0
-6.894291e-01	 -6.894291e-01	 1.500000e+00
-6.894291e-01	 -6.894291e-01	 2.250000e+00
-6.894291e-01	 -6.894291e-01	 3.000000e+00
-6.894291e-01	 6.894291e-01	 3.750000e-01
-6.894291e-01	 6.894291e-01	 2.625000e+00
-6.894291e-01	 -6.894291e-01	 1.875000e+00
-6.894291e-01	 6.894291e-01	 1.875000e+00
-6.894291e-01	 -6.894291e-01	 7.500000e-01
-6.894291e-01	 -6.894291e-01	 1.125000e+00
-6.894291e-01	 6.894291e-01	 0
-6.894291e-01	 6.894291e-01	 1.500000e+00
-6.894291e-01	 6.894291e-01	 2.250000e+00
-6.894291e-01	 6.894291e-01	 3.000000e+00
-6.894291e-01	 6.894291e-01	 7.500000e-01
-6.894291e-01	 6.894291e-01	 1.125000e+00
-6.805903e-01	 6.805903e-01	 7.500000e-01
-6.805903e-01	 -6.805903e-01	 7.500000e-01
-6.805903e-01	 -6.805903e-01	 0
-6.805903e-01	 -6.805903e-01	 1.500000e+00
-6.805903e-01	 -6.805903e-01	 3.000000e+00
-6.805903e-01	 6.805903e-01	 0
-6.805903e-01	 6.805903e-01	 1.500000e+00
-6.805903e-01	 6.805903e-01	 3.000000e+00
-6.805903e-01	 6.805903e-01	 2.250000e+00
-6.805903e-01	 -6.805903e-01	 2.250000e+00
-6.717514e-01	 -6.717514e-01	 2.625000e+00
-6.717514e-01	 6.717514e-01	 2.625000e+00
-6.717514e-01	 -6.717514e-01	 0
-6.717514e-01	 -6.717514e-01	 3.750000e-01
-6.717514e-01	 -6.717514e-01	 7.500000e-01
-6.717514e-01	 -6.717514e-01	 1.125000e+00
-6.717514e-01	 -6.717514e-01	 1.875000e+00
-6.717514e-01	 -6.717514e-01	 3.000000e+00
-6.717514e-01	 -6.717514e-01	 2.250000e+00
-6.717514e-01	 6.717514e-01	 1.500000e+00
-6.717514e-01	 6.717514e-01	 0
-6.717514e-01	 6.717514e-01	 3.750000e-01
-6.717514e-01	 6.717514e-01	 7.500000e-01
-6.717514e-01	 6.717514e-01	 1.125000e+00
-6.717514e-01	 6.717514e-01	 1.875000e+00
-6.717514e-01	 6.717514e-01	 3.000000e+00
-6.717514e-01	 -6.717514e-01	 1.500000e+00
-6.717514e-01	 6.717514e-01	 2.250000e+00
-5.472098e-01	 -8.369955e-01	 0
-5.472098e-01	 -8.369955e-01	 7.500000e-01
-5.472098e-01	 -8.369955e-01	 1.500000e+00
-5.472098e-01	 -8.369955e-01	 2.250000e+00
-5.472098e-01	 -8.369955e-01	 3
-5.472098e-01	 8.369955e-01	 0
-5.472098e-01	 8.369955e-01	 7.500000e-01
-5.472098e-01	 8.369955e-01	 1.500000e+00
-5.472098e-01	 8.369955e-01	 2.250000e+00
-5.472098e-01	 8.369955e-01	 3
-5.335295e-01	 -8.160706e-01	 1.500000e+00
-5.335295e-01	 -8.160706e-01	 2.250000e+00
-5.335295e-01	 8.160706e-01	 0
-5.335295e-01	 8.160706e-01	 3.000000e+00
[...]
POINT_DATA 832
VECTORS displacement float
0	 0	 1.796913e-10
1.136512e-09	 1.329271e-10	 1.345915e-10
1.627566e-09	 1.674202e-10	 8.093834e-17
1.136513e-09	 1.329271e-10	 -1.345913e-10
4.601164e-16	 -4.354949e-17	 -1.796911e-10
-1.136512e-09	 -1.329272e-10	 -1.345914e-10
-1.627566e-09	 -1.674203e-10	 4.430248e-18
-1.136512e-09	 -1.329271e-10	 1.345914e-10
0	 0	 1.796912e-10
0	 0	 1.423069e-10
4.611536e-16	 -6.020798e-17	 -1.423068e-10
0	 0	 1.423068e-10
-1.636377e-09	 -3.275787e-10	 8.857804e-18
1.636378e-09	 3.275786e-10	 7.650789e-17
2.814800e-09	 5.648970e-10	 5.903966e-17
0	 0	 3.400638e-10
1.920189e-16	 -6.149799e-17	 -3.400637e-10
0	 0	 3.400638e-10
5.969919e-10	 -3.494577e-10	 -2.331156e-18
0	 0	 -7.754427e-11
5.873759e-16	 -7.917225e-17	 7.754443e-11
0	 0	 -7.754440e-11
-5.969911e-10	 3.494575e-10	 9.174429e-17
-2.814800e-09	 -5.648971e-10	 2.082156e-17
1.640669e-09	 4.845180e-10	 7.210057e-17
1.139703e-09	 3.340188e-10	 -7.002863e-11
0	 0	 1.056592e-10
1.139702e-09	 3.340189e-10	 7.002877e-11
-1.139702e-09	 -3.340190e-10	 -7.002867e-11
-1.139702e-09	 -3.340189e-10	 7.002870e-11
0	 0	 1.056592e-10
4.617744e-16	 -7.672136e-17	 -1.056591e-10
-1.640668e-09	 -4.845181e-10	 1.326216e-17
4.622222e-16	 -9.310717e-17	 -6.892738e-11
-1.644199e-09	 -6.412001e-10	 1.767501e-17
0	 0	 6.892750e-11
1.644200e-09	 6.412000e-10	 6.768471e-17
0	 0	 6.892743e-11
0	 0	 2.006174e-10
0	 0	 2.006174e-10
1.994211e-16	 -1.000714e-16	 -2.006173e-10
0	 0	 -4.516953e-11
0	 0	 -4.516963e-11
5.878595e-16	 -8.084920e-17	 4.516967e-11
-5.450427e-10	 6.352927e-10	 8.044424e-17
2.825011e-09	 5.451869e-10	 5.563502e-17
-2.825011e-09	 -5.451871e-10	 2.423087e-17
5.450435e-10	 -6.352928e-10	 8.958321e-18
0	 0	 3.143578e-11
1.135611e-09	 5.342062e-10	 5.234023e-12
1.135611e-09	 5.342061e-10	 -5.233898e-12
4.621770e-16	 -1.096368e-16	 -3.143567e-11
-1.135610e-09	 -5.342063e-10	 -5.233921e-12
-1.642163e-09	 -8.002240e-10	 2.211346e-17
-1.135610e-09	 -5.342063e-10	 5.233968e-12
0	 0	 3.143572e-11
1.642163e-09	 8.002238e-10	 6.324339e-17
2.066988e-16	 -1.389873e-16	 -6.148169e-11
0	 0	 6.148179e-11
0	 0	 6.148175e-11
4.857193e-10	 -9.229990e-10	 2.023864e-17
0	 0	 -1.277015e-11
5.862429e-16	 -8.212590e-17	 1.277028e-11
0	 0	 -1.277022e-11
2.809491e-09	 5.201745e-10	 5.223373e-17
-2.809491e-09	 -5.201747e-10	 2.763673e-17
-4.857184e-10	 9.229989e-10	 6.915325e-17
9.273261e-10	 2.708294e-10	 -1.135776e-10
0	 0	 1.657175e-10
1.287179e-09	 4.013854e-10	 3.100201e-17
-1.014425e-16	 -1.496743e-16	 -1.657175e-10
-9.273263e-10	 -2.708297e-10	 -1.135776e-10
-1.287179e-09	 -4.013856e-10	 4.164686e-17
-9.273263e-10	 -2.708296e-10	 1.135777e-10
0	 0	 1.657175e-10
9.273262e-10	 2.708295e-10	 1.135777e-10
-1.498238e-09	 6.856275e-10	 -1.979604e-10
2.128128e-09	 -9.548765e-10	 8.748072e-18
1.498238e-09	 -6.856276e-10	 -1.979605e-10
0	 0	 -2.705629e-10
-2.128127e-09	 9.548764e-10	 8.321733e-17
4.763734e-16	 -7.124163e-17	 2.705630e-10
1.498238e-09	 -6.856276e-10	 1.979606e-10
0	 0	 -2.705630e-10
-1.498237e-09	 6.856275e-10	 1.979606e-10
-2.111817e-09	 1.029660e-09	 7.864782e-17
0	 0	 1.307004e-10
1.352884e-09	 2.507723e-10	 3.244500e-17
-1.352884e-09	 -2.507725e-10	 4.021758e-17
0	 0	 1.307004e-10
0	 0	 -2.150192e-10
2.111818e-09	 -1.029660e-09	 1.330874e-17
0	 0	 -2.150193e-10
-9.485020e-17	 -1.677872e-16	 -1.307003e-10
4.824274e-16	 -5.859261e-17	 2.150194e-10
1.004322e-09	 8.242180e-11	 -6.267609e-11
-1.004322e-09	 -8.242204e-11	 6.267617e-11
0	 0	 9.613111e-11
1.004322e-09	 8.242190e-11	 6.267616e-11
-8.803354e-17	 -1.856957e-16	 -9.613104e-11
0	 0	 9.613111e-11
1.468934e-09	 -7.716896e-10	 -1.061721e-10
-1.468934e-09	 7.716895e-10	 1.061722e-10
0	 0	 -1.604702e-10
-1.468934e-09	 7.716896e-10	 -1.061721e-10
0	 0	 -1.604703e-10
1.414671e-09	 1.022926e-10	 3.387050e-17
-1.004322e-09	 -8.242214e-11	 -6.267609e-11
1.468935e-09	 -7.716896e-10	 1.061722e-10
4.881000e-16	 -4.593727e-17	 1.604704e-10
-1.414671e-09	 -1.022929e-10	 3.880564e-17
-2.090252e-09	 1.101088e-09	 7.409722e-17
2.090253e-09	 -1.101088e-09	 1.785039e-17
4.936321e-16	 -3.334716e-17	 1.059044e-10
-8.122999e-17	 -2.034428e-16	 -6.146812e-11
0	 0	 6.146819e-11
0	 0	 6.146820e-11
0	 0	 -1.059043e-10
0	 0	 -1.059044e-10
-1.476450e-09	 4.568881e-11	 3.739359e-17
1.476450e-09	 -4.568909e-11	 3.529602e-17
2.068375e-09	 -1.172406e-09	 2.240045e-17
-2.068374e-09	 1.172406e-09	 6.953825e-17
1.076683e-09	 -1.064714e-10	 -1.152434e-11
-1.076683e-09	 1.064710e-10	 -1.152434e-11
-1.076683e-09	 1.064711e-10	 1.152441e-11
-1.535774e-09	 1.972296e-10	 3.596499e-17
-1.430908e-09	 8.540019e-10	 1.413614e-11
0	 0	 2.626830e-11
0	 0	 2.626830e-11
1.076683e-09	 -1.064713e-10	 1.152441e-11
1.535774e-09	 -1.972299e-10	 3.673837e-17
-1.430908e-09	 8.540019e-10	 -1.413601e-11
-2.039112e-09	 1.241635e-09	 6.495586e-17
2.039112e-09	 -1.241635e-09	 2.697402e-17
1.430908e-09	 -8.540019e-10	 -1.413607e-11
0	 0	 -5.027556e-11
1.430909e-09	 -8.540019e-10	 1.413612e-11
0	 0	 -5.027562e-11
-7.405612e-17	 -2.211743e-16	 -2.626822e-11
4.988173e-16	 -2.047952e-17	 5.027568e-11
0	 0	 -1.109404e-10
-7.429704e-10	 -6.897032e-10	 7.072394e-18
-2.775140e-16	 -2.623226e-16	 1.109404e-10
7.429700e-10	 6.897028e-10	 5.687108e-17
0	 0	 -1.109403e-10
0	 0	 -2.976312e-10
-2.066678e-09	 1.244425e-09	 6.090419e-17
2.436998e-16	 4.103588e-17	 2.976313e-10
2.066679e-09	 -1.244425e-09	 3.170115e-17
0	 0	 -2.976313e-10
-6.157220e-10	 -8.864556e-10	 1.423979e-17
-2.158452e-09	 1.112226e-09	 5.735546e-17
-2.709303e-16	 -2.730531e-16	 6.674776e-11
6.157216e-10	 8.864552e-10	 4.973068e-17
2.631358e-16	 7.049520e-17	 1.802304e-10
2.158453e-09	 -1.112226e-09	 3.524590e-17
0	 0	 -6.674772e-11
0	 0	 -6.674767e-11
0	 0	 -1.802303e-10
0	 0	 -1.802303e-10
-4.781189e-10	 -1.079625e-09	 2.139914e-17
-2.234316e-09	 9.672153e-10	 5.380938e-17
0	 0	 -2.266446e-11
-2.629449e-16	 -2.829488e-16	 2.266451e-11
4.781185e-10	 1.079624e-09	 4.259836e-17
0	 0	 -2.266443e-11
0	 0	 -6.306584e-11
2.824757e-16	 1.003452e-16	 6.306594e-11
2.234317e-09	 -9.672152e-10	 3.878794e-17
0	 0	 -6.306586e-11
0	 0	 -2.361860e-10
-1.007178e-09	 -1.061085e-09	 -1.723031e-10
-1.432343e-09	 -1.505752e-09	 -2.228618e-18
-1.007178e-09	 -1.061085e-09	 1.723031e-10
-2.627526e-16	 -2.754055e-16	 2.361860e-10
1.007178e-09	 1.061085e-09	 1.723031e-10
1.432343e-09	 1.505751e-09	 5.633450e-17
1.007178e-09	 1.061085e-09	 -1.723030e-10
0	 0	 -2.361859e-10
0	 0	 -5.372327e-12
-9.992051e-11	 -1.055082e-10	 -2.113269e-12
-1.071665e-10	 -1.297260e-10	 3.135372e-17
-9.992050e-11	 -1.055081e-10	 2.113334e-12
9.948288e-18	 2.332293e-16	 5.372398e-12
9.992052e-11	 1.055085e-10	 2.113350e-12
1.071665e-10	 1.297263e-10	 5.979522e-17
9.992051e-11	 1.055084e-10	 -2.113232e-12
0	 0	 -5.372287e-12
-1.425720e-09	 -1.527904e-09	 1.489824e-18
-2.460317e-10	 -2.689685e-10	 3.284844e-17
0	 0	 -1.876618e-10
1.425720e-09	 1.527904e-09	 5.263366e-17
0	 0	 -1.876617e-10
0	 0	 -4.598658e-12
2.460317e-10	 2.689689e-10	 5.830446e-17
0	 0	 -4.598622e-12
-2.676837e-16	 -2.716698e-16	 1.876618e-10
2.274739e-17	 2.465887e-16	 4.598732e-12
-9.910793e-10	 -1.081831e-09	 -8.984757e-11
9.910790e-10	 1.081831e-09	 -8.984751e-11
0	 0	 -1.400413e-10
-2.723268e-16	 -2.678279e-16	 1.400413e-10
1.415400e-09	 1.545936e-09	 4.894742e-17
0	 0	 -1.400412e-10
-2.702059e-10	 -2.755335e-10	 -3.374119e-12
2.702060e-10	 2.755337e-10	 -3.374089e-12
9.910789e-10	 1.081831e-09	 8.984761e-11
2.702060e-10	 2.755338e-10	 3.374201e-12
-1.415401e-09	 -1.545937e-09	 5.193440e-18
-9.910794e-10	 -1.081831e-09	 8.984758e-11
0	 0	 -3.776630e-12
3.562676e-17	 2.597696e-16	 3.776705e-12
3.824836e-10	 4.054187e-10	 5.682400e-17
0	 0	 -3.776598e-12
-3.824836e-10	 -4.054183e-10	 3.433264e-17
-2.702059e-10	 -2.755333e-10	 3.374189e-12
-5.185822e-10	 -5.414874e-10	 3.581864e-17
-1.404867e-09	 -1.563609e-09	 8.901366e-18
0	 0	 -9.242888e-11
-2.768798e-16	 -2.639226e-16	 9.242891e-11
0	 0	 -9.242883e-11
0	 0	 -2.949544e-12
4.840896e-17	 2.728123e-16	 2.949622e-12
0	 0	 -2.949517e-12
5.185823e-10	 5.414878e-10	 5.534169e-17
1.404867e-09	 1.563608e-09	 4.525682e-17
9.688893e-10	 1.096296e-09	 -7.161534e-12
4.397558e-10	 4.443626e-10	 -4.633912e-12
0	 0	 -4.383538e-11
-9.688895e-10	 -1.096296e-09	 -7.161574e-12
-1.389185e-09	 -1.576477e-09	 1.262741e-17
-9.688896e-10	 -1.096296e-09	 7.161600e-12
9.688891e-10	 1.096296e-09	 7.161616e-12
0	 0	 -4.383534e-11
1.389184e-09	 1.576476e-09	 4.154834e-17
6.142967e-17	 2.857629e-16	 2.164145e-12
0	 0	 -2.164066e-12
-4.397558e-10	 -4.443624e-10	 -4.633934e-12
-6.567148e-10	 -6.790766e-10	 3.731687e-17
-4.397557e-10	 -4.443622e-10	 4.634009e-12
4.397559e-10	 4.443627e-10	 4.634018e-12
0	 0	 -2.164042e-12
-2.812526e-16	 -2.597367e-16	 4.383541e-11
6.567149e-10	 6.790770e-10	 5.384747e-17
0	 0	 -1.831885e-10
-9.187101e-10	 -1.232979e-09	 -8.946085e-19
-1.789490e-16	 -1.800146e-16	 1.831885e-10
9.187099e-10	 1.232978e-09	 4.465941e-17
0	 0	 -1.831885e-10
0	 0	 2.801313e-10
1.195906e-09	 -2.035252e-09	 5.371442e-18
-1.233943e-16	 4.185422e-16	 -2.801313e-10
-1.195906e-09	 2.035252e-09	 8.224278e-17
0	 0	 2.801314e-10
-1.943271e-16	 -1.701743e-16	 1.112043e-10
1.083801e-09	 1.127714e-09	 3.982633e-17
0	 0	 1.686286e-10
0	 0	 1.686286e-10
-1.088654e-16	 4.286852e-16	 -1.686285e-10
-1.081979e-09	 2.114720e-09	 7.427012e-17
-1.083801e-09	 -1.127714e-09	 3.968791e-18
0	 0	 -1.112043e-10
0	 0	 -1.112042e-10
1.081979e-09	 -2.114720e-09	 1.336636e-17
9.548595e-10	 -2.177232e-09	 2.135709e-17
-1.242874e-09	 -1.009228e-09	 8.834527e-18
0	 0	 -3.936121e-11
-2.096888e-16	 -1.600245e-16	 3.936123e-11
1.242874e-09	 1.009228e-09	 3.499115e-17
0	 0	 -3.936117e-11
0	 0	 5.739881e-11
-9.353886e-17	 4.378399e-16	 -5.739876e-11
-9.548597e-10	 2.177233e-09	 6.630177e-17
0	 0	 5.739888e-11
1.165025e-10	 5.160401e-10	 -5.653154e-11
5.804003e-10	 -1.336141e-09	 -1.743407e-10
0	 0	 8.301724e-11
1.932976e-10	 7.200114e-10	 7.237215e-18
-1.056346e-16	 -3.693583e-17	 -8.301722e-11
-1.165027e-10	 -5.160402e-10	 -5.653153e-11
0	 0	 8.301727e-11
0	 0	 2.353397e-10
8.036404e-10	 -1.908415e-09	 -7.036962e-18
-1.383940e-16	 4.802326e-16	 -2.353396e-10
-5.804006e-10	 1.336142e-09	 -1.743407e-10
-8.036406e-10	 1.908416e-09	 8.931047e-17
-5.804005e-10	 1.336142e-09	 1.743409e-10
0	 0	 2.353398e-10
1.165025e-10	 5.160401e-10	 5.653155e-11
-1.932977e-10	 -7.200115e-10	 2.632770e-17
-1.165026e-10	 -5.160402e-10	 5.653158e-11
5.804004e-10	 -1.336142e-09	 1.743407e-10
-1.153243e-16	 -3.317773e-17	 -6.439264e-11
-1.395829e-16	 4.808080e-16	 -1.870588e-10
3.343934e-11	 7.863190e-10	 7.975804e-18
0	 0	 6.439267e-11
-3.343951e-11	 -7.863191e-10	 2.559696e-17
0	 0	 6.439269e-11
0	 0	 1.870588e-10
8.924001e-10	 -1.885405e-09	 -2.172480e-18
-8.924003e-10	 1.885406e-09	 8.446087e-17
0	 0	 1.870589e-10
1.236649e-10	 -8.497411e-10	 2.486168e-17
-9.775129e-10	 1.857766e-09	 7.962406e-17
6.820767e-10	 -1.300046e-09	 -9.213137e-11
-6.820769e-10	 1.300047e-09	 9.213148e-11
0	 0	 4.603024e-11
-8.113833e-11	 5.951449e-10	 2.833437e-11
0	 0	 4.603026e-11
-1.250304e-16	 -2.947507e-17	 -4.603022e-11
0	 0	 1.396997e-10
6.820768e-10	 -1.300046e-09	 9.213138e-11
-1.405875e-16	 4.811670e-16	 -1.396997e-10
0	 0	 1.396998e-10
-8.113840e-11	 5.951449e-10	 -2.833435e-11
8.113817e-11	 -5.951450e-10	 -2.833434e-11
-1.236651e-10	 8.497410e-10	 8.718948e-18
9.775127e-10	 -1.857765e-09	 2.678884e-18
-6.820770e-10	 1.300047e-09	 -9.213133e-11
8.113823e-11	 -5.951450e-10	 2.833439e-11
-1.345971e-16	 -2.579151e-17	 -2.758867e-11
2.803050e-10	 -9.132397e-10	 2.412734e-17
-1.062557e-09	 1.829767e-09	 7.478077e-17
0	 0	 9.233641e-11
0	 0	 9.233650e-11
-1.415875e-16	 4.813849e-16	 -9.233637e-11
0	 0	 2.758869e-11
0	 0	 2.758871e-11
-2.803052e-10	 9.132396e-10	 9.461092e-18
1.062557e-09	 -1.829767e-09	 7.536653e-18
-2.784996e-10	 6.715022e-10	 3.952243e-14
0	 0	 8.828411e-12
2.784993e-10	 -6.715023e-10	 3.952987e-14
0	 0	 8.828430e-12
-1.442537e-16	 -2.216697e-17	 -8.828387e-12
0	 0	 4.400148e-11
0	 0	 4.400156e-11
7.801779e-10	 -1.256027e-09	 -9.713289e-12
-7.801782e-10	 1.256028e-09	 -9.713257e-12
-7.801781e-10	 1.256028e-09	 9.713394e-12
-2.784995e-10	 6.715022e-10	 -3.950163e-14
-4.400526e-10	 9.756642e-10	 1.019957e-17
4.400524e-10	 -9.756642e-10	 2.339678e-17
2.784994e-10	 -6.715023e-10	 -3.948354e-14
-1.424963e-16	 4.813111e-16	 -4.400144e-11
7.801780e-10	 -1.256027e-09	 9.713317e-12
-1.145979e-09	 1.794828e-09	 6.991939e-17
1.145979e-09	 -1.794827e-09	 1.241287e-17
4.508786e-10	 2.460865e-09	 1.630476e-17
2.123190e-10	 -2.763303e-10	 -8.429334e-18
0	 0	 2.833345e-10
-7.208415e-17	 9.628511e-17	 -2.833345e-10
0	 0	 2.833345e-10
0	 0	 4.145873e-11
-1.192777e-16	 4.366171e-16	 -4.145872e-11
0	 0	 4.145886e-11
-4.508787e-10	 -2.460865e-09	 7.771352e-18
-2.123192e-10	 2.763309e-10	 8.403879e-17
3.845690e-10	 2.478867e-09	 1.474038e-17
0	 0	 1.654247e-10
0	 0	 1.654247e-10
4.855378e-10	 -2.259771e-10	 3.918242e-19
-4.855380e-10	 2.259778e-10	 7.524816e-17
0	 0	 2.460498e-11
0	 0	 2.460509e-11
-3.845691e-10	 -2.478867e-09	 9.356702e-18
-1.299686e-16	 4.351758e-16	 -2.460496e-11
-8.636461e-17	 9.903482e-17	 -1.654247e-10
-1.406288e-16	 4.331379e-16	 -7.681419e-12
0	 0	 4.785036e-11
-1.008297e-16	 1.013999e-16	 -4.785033e-11
0	 0	 4.785036e-11
0	 0	 7.681454e-12
0	 0	 7.681535e-12
-3.127821e-10	 -2.473003e-09	 1.093762e-17
3.127819e-10	 2.473003e-09	 1.318061e-17
7.611922e-10	 -1.718804e-10	 9.217570e-18
-7.611924e-10	 1.718810e-10	 6.645315e-17
0	 0	 1.730375e-10
7.857964e-11	 1.155438e-09	 1.330125e-10
9.234648e-11	 1.671990e-09	 2.209286e-17
7.857960e-11	 1.155439e-09	 -1.330124e-10
-6.953903e-17	 1.804558e-16	 -1.730375e-10
-7.857973e-11	 -1.155438e-09	 -1.330124e-10
-9.234658e-11	 -1.671989e-09	 -6.331516e-18
-7.857969e-11	 -1.155438e-09	 1.330124e-10
0	 0	 1.730375e-10
0	 0	 1.364896e-10
-7.396587e-17	 1.808124e-16	 -1.364896e-10
0	 0	 1.364896e-10
-2.223768e-10	 -1.681363e-09	 -4.528131e-18
2.223767e-10	 1.681364e-09	 2.029563e-17
3.496833e-10	 1.685739e-09	 1.850237e-17
2.403140e-10	 1.158459e-09	 -6.569752e-11
0	 0	 1.007619e-10
2.403140e-10	 1.158459e-09	 6.569756e-11
-2.403141e-10	 -1.158459e-09	 -6.569754e-11
-2.403141e-10	 -1.158459e-09	 6.569753e-11
0	 0	 1.007619e-10
-7.844703e-17	 1.810866e-16	 -1.007619e-10
-3.496835e-10	 -1.685739e-09	 -2.728611e-18
-8.284084e-17	 1.812818e-16	 -6.494970e-11
-4.768534e-10	 -1.689273e-09	 -9.260315e-19
0	 0	 6.494973e-11
4.768533e-10	 1.689273e-09	 1.670606e-17
0	 0	 6.494970e-11
0	 0	 2.830694e-11
4.013193e-10	 1.153604e-09	 -1.856585e-12
4.013192e-10	 1.153604e-09	 1.856615e-12
-8.724054e-17	 1.813953e-16	 -2.830691e-11
-4.013194e-10	 -1.153603e-09	 1.856606e-12
-6.059511e-10	 -1.686624e-09	 8.816915e-19
-4.013194e-10	 -1.153604e-09	 -1.856604e-12
0	 0	 2.830692e-11
6.059510e-10	 1.686624e-09	 1.490457e-17
6.059510e-10	 1.686624e-09	 1.269396e-17
0	 0	 -2.830691e-11
4.013193e-10	 1.153604e-09	 1.856608e-12
4.013192e-10	 1.153604e-09	 -1.856581e-12
-1.425710e-16	 3.289838e-16	 2.830695e-11
-4.013195e-10	 -1.153603e-09	 -1.856557e-12
-6.059512e-10	 -1.686624e-09	 5.550845e-17
-4.013194e-10	 -1.153603e-09	 1.856666e-12
0	 0	 -2.830685e-11
0	 0	 -6.494971e-11
4.768532e-10	 1.689273e-09	 9.441506e-18
0	 0	 -6.494964e-11
-1.332623e-16	 3.287518e-16	 6.494974e-11
-4.768534e-10	 -1.689273e-09	 5.874987e-17
-1.239933e-16	 3.284052e-16	 1.007619e-10
-3.496835e-10	 -1.685739e-09	 6.198326e-17
0	 0	 -1.007619e-10
2.403140e-10	 1.158459e-09	 -6.569754e-11
-2.403142e-10	 -1.158459e-09	 6.569759e-11
-2.403141e-10	 -1.158459e-09	 -6.569747e-11
0	 0	 -1.007618e-10
3.496833e-10	 1.685739e-09	 6.197443e-18
2.403140e-10	 1.158460e-09	 6.569756e-11
2.223766e-10	 1.681364e-09	 2.958034e-18
-2.223768e-10	 -1.681363e-09	 6.521181e-17
0	 0	 -1.364896e-10
-1.146040e-16	 3.279499e-16	 1.364896e-10
0	 0	 -1.364895e-10
0	 0	 -1.730375e-10
7.857963e-11	 1.155438e-09	 -1.330124e-10
9.234645e-11	 1.671990e-09	 -2.859506e-19
7.857957e-11	 1.155439e-09	 1.330125e-10
-1.052430e-16	 3.273809e-16	 1.730375e-10
-7.857976e-11	 -1.155438e-09	 1.330125e-10
-9.234660e-11	 -1.671989e-09	 6.844482e-17
-7.857971e-11	 -1.155438e-09	 -1.330124e-10
0	 0	 -1.730374e-10
7.611922e-10	 -1.718805e-10	 1.497021e-17
-7.611923e-10	 1.718808e-10	 -6.633367e-18
3.127819e-10	 2.473003e-09	 1.939028e-17
-3.127821e-10	 -2.473002e-09	 4.046891e-17
0	 0	 -7.681437e-12
0	 0	 -7.681467e-12
0	 0	 -4.785033e-11
-1.606039e-16	 1.846039e-16	 4.785038e-11
0	 0	 -4.785030e-11
-8.607202e-17	 2.304189e-16	 7.681460e-12
-1.377543e-16	 1.804471e-16	 1.654248e-10
-8.112096e-17	 2.314301e-16	 2.460500e-11
-3.845692e-10	 -2.478867e-09	 4.344053e-17
0	 0	 -2.460497e-11
0	 0	 -2.460501e-11
4.855379e-10	 -2.259773e-10	 1.970423e-17
-4.855380e-10	 2.259776e-10	 -1.138051e-17
0	 0	 -1.654247e-10
0	 0	 -1.654247e-10
3.845690e-10	 2.478867e-09	 1.642115e-17
-2.123192e-10	 2.763307e-10	 -1.612664e-17
-4.508787e-10	 -2.460865e-09	 4.641435e-17
0	 0	 -4.145872e-11
-7.615969e-17	 2.321694e-16	 4.145876e-11
0	 0	 -4.145878e-11
0	 0	 -2.833345e-10
-1.151218e-16	 1.760124e-16	 2.833345e-10
0	 0	 -2.833344e-10
2.123191e-10	 -2.763304e-10	 2.443727e-17
4.508786e-10	 2.460865e-09	 1.344960e-17
1.145979e-09	 -1.794828e-09	 1.112988e-17
-1.145979e-09	 1.794828e-09	 -9.455739e-18
7.801780e-10	 -1.256027e-09	 -9.713299e-12
-8.634616e-17	 2.523008e-16	 4.400148e-11
-2.784995e-10	 6.715023e-10	 3.953928e-14
-4.400526e-10	 9.756642e-10	 2.870163e-17
4.400523e-10	 -9.756642e-10	 2.169222e-17
2.784994e-10	 -6.715023e-10	 3.952952e-14
7.801780e-10	 -1.256027e-09	 9.713321e-12
-7.801781e-10	 1.256028e-09	 9.713309e-12
-7.801781e-10	 1.256027e-09	 -9.713327e-12
0	 0	 -4.400147e-11
0	 0	 -4.400149e-11
-2.183341e-16	 6.407061e-18	 8.828429e-12
0	 0	 -8.828374e-12
2.784993e-10	 -6.715023e-10	 -3.948603e-14
0	 0	 -8.828384e-12
-2.784997e-10	 6.715023e-10	 -3.948196e-14
1.062557e-09	 -1.829767e-09	 1.370318e-17
-2.803052e-10	 9.132397e-10	 2.943385e-17
0	 0	 -2.758866e-11
0	 0	 -2.758867e-11
-8.602343e-17	 2.522909e-16	 9.233641e-11
0	 0	 -9.233640e-11
0	 0	 -9.233643e-11
-1.062557e-09	 1.829767e-09	 -1.204135e-17
2.803049e-10	 -9.132397e-10	 2.096590e-17
-2.055907e-16	 1.514509e-18	 2.758871e-11
8.113820e-11	 -5.951450e-10	 -2.833434e-11
9.775127e-10	 -1.857765e-09	 1.626659e-17
-6.820769e-10	 1.300047e-09	 9.213138e-11
-1.236652e-10	 8.497411e-10	 3.016750e-17
8.113810e-11	 -5.951450e-10	 2.833438e-11
-8.113845e-11	 5.951449e-10	 2.833439e-11
0	 0	 -1.396997e-10
6.820768e-10	 -1.300046e-09	 -9.213137e-11
-8.565476e-17	 2.521086e-16	 1.396997e-10
0	 0	 -1.396997e-10
-1.929235e-16	 -3.384850e-18	 4.603026e-11
0	 0	 -4.603020e-11
-8.113835e-11	 5.951449e-10	 -2.833433e-11
0	 0	 -4.603022e-11
6.820768e-10	 -1.300046e-09	 9.213140e-11
-6.820769e-10	 1.300047e-09	 -9.213141e-11
-9.775128e-10	 1.857766e-09	 -1.461713e-17
1.236649e-10	 -8.497411e-10	 2.023803e-17
0	 0	 -1.870588e-10
8.924001e-10	 -1.885405e-09	 1.882619e-17
-8.924003e-10	 1.885405e-09	 -1.718904e-17
0	 0	 -1.870589e-10
0	 0	 -6.439263e-11
-3.343956e-11	 -7.863191e-10	 1.950896e-17
0	 0	 -6.439265e-11
3.343931e-11	 7.863190e-10	 3.090248e-17
-8.529761e-17	 2.518248e-16	 1.870588e-10
-1.801016e-16	 -8.307127e-18	 6.439269e-11
5.804004e-10	 -1.336142e-09	 -1.743407e-10
1.165025e-10	 5.160402e-10	 -5.653152e-11
-1.932978e-10	 -7.200115e-10	 1.878168e-17
-1.165026e-10	 -5.160402e-10	 -5.653153e-11
0	 0	 -2.353397e-10
8.036404e-10	 -1.908415e-09	 2.139380e-17
-8.480132e-17	 2.514244e-16	 2.353397e-10
-5.804006e-10	 1.336142e-09	 1.743407e-10
-8.036405e-10	 1.908415e-09	 -1.976876e-17
-5.804005e-10	 1.336142e-09	 -1.743408e-10
0	 0	 -2.353397e-10
0	 0	 -8.301721e-11
1.932976e-10	 7.200115e-10	 3.163570e-17
-1.672869e-16	 -1.324261e-17	 8.301727e-11
-1.165027e-10	 -5.160402e-10	 5.653157e-11
0	 0	 -8.301723e-11
5.804004e-10	 -1.336142e-09	 1.743408e-10
1.165024e-10	 5.160401e-10	 5.653158e-11
0	 0	 -5.739880e-11
-5.082585e-17	 2.182311e-16	 5.739880e-11
-9.548596e-10	 2.177232e-09	 -7.971818e-18
0	 0	 -5.739881e-11
0	 0	 3.936126e-11
-3.004156e-16	 -1.698953e-16	 -3.936119e-11
1.242874e-09	 1.009228e-09	 3.440537e-18