# vtk DataFile Version 3.0
Unstructured Grid Example
ASCII
DATASET UNSTRUCTURED_GRID
POINTS 832 float
-1	 0	 0
-1	 0	 3.750000e-01
-1	 0	 7.500000e-01
-1	 0	 1.125000e+00
-1	 0	 1.500000e+00
-1	 0	 1.875000e+00
-1	 0	 2.250000e+00
-1	 0	 2.625000e+00
-1	 0	 3
-9.875000e-01	 0	 0
-9.875000e-01	 0	 1.500000e+00
-9.875000e-01	 0	 3
-9.875000e-01	 0	 2.250000e+00
-9.875000e-01	 0	 7.500000e-01
-9.833054e-01	 -1.819631e-01	 7.500000e-01
-9.833054e-01	 -1.819631e-01	 0
-9.833054e-01	 -1.819631e-01	 1.500000e+00
-9.833054e-01	 -1.819631e-01	 3.000000e+00
-9.833054e-01	 1.819631e-01	 2.250000e+00
-9.833054e-01	 1.819631e-01	 0
-9.833054e-01	 1.819631e-01	 1.500000e+00
-9.833054e-01	 1.819631e-01	 3.000000e+00
-9.833054e-01	 1.819631e-01	 7.500000e-01
-9.833054e-01	 -1.819631e-01	 2.250000e+00
-9.750000e-01	 0	 7.500000e-01
-9.750000e-01	 0	 1.125000e+00
-9.750000e-01	 0	 0
-9.750000e-01	 0	 3.750000e-01
-9.750000e-01	 0	 1.875000e+00
-9.750000e-01	 0	 2.625000e+00
-9.750000e-01	 0	 3
-9.750000e-01	 0	 1.500000e+00
-9.750000e-01	 0	 2.250000e+00
-9.625000e-01	 0	 1.500000e+00
-9.625000e-01	 0	 2.250000e+00
-9.625000e-01	 0	 0
-9.625000e-01	 0	 7.500000e-01
-9.625000e-01	 0	 3
-9.587227e-01	 -1.774140e-01	 0
-9.587227e-01	 -1.774140e-01	 3.000000e+00
-9.587227e-01	 -1.774140e-01	 1.500000e+00
-9.587227e-01	 1.774140e-01	 0
-9.587227e-01	 1.774140e-01	 3.000000e+00
-9.587227e-01	 1.774140e-01	 1.500000e+00
-9.587227e-01	 1.774140e-01	 7.500000e-01
-9.587227e-01	 -1.774140e-01	 7.500000e-01
-9.587227e-01	 -1.774140e-01	 2.250000e+00
-9.587227e-01	 1.774140e-01	 2.250000e+00
-9.500000e-01	 0	 0
-9.500000e-01	 0	 3.750000e-01
-9.500000e-01	 0	 1.125000e+00
-9.500000e-01	 0	 1.500000e+00
-9.500000e-01	 0	 1.875000e+00
-9.500000e-01	 0	 2.250000e+00
-9.500000e-01	 0	 2.625000e+00
-9.500000e-01	 0	 3
-9.500000e-01	 0	 7.500000e-01
-9.341401e-01	 -1.728649e-01	 1.500000e+00
-9.341401e-01	 -1.728649e-01	 0
-9.341401e-01	 -1.728649e-01	 3.000000e+00
-9.341401e-01	 1.728649e-01	 2.250000e+00
-9.341401e-01	 1.728649e-01	 0
-9.341401e-01	 1.728649e-01	 1.500000e+00
-9.341401e-01	 1.728649e-01	 3.000000e+00
-9.341401e-01	 -1.728649e-01	 7.500000e-01
-9.341401e-01	 -1.728649e-01	 2.250000e+00
-9.341401e-01	 1.728649e-01	 7.500000e-01
-9.297883e-01	 -3.680947e-01	 1.125000e+00
-9.297883e-01	 -3.680947e-01	 0
-9.297883e-01	 -3.680947e-01	 7.500000e-01
-9.297883e-01	 -3.680947e-01	 1.500000e+00
-9.297883e-01	 -3.680947e-01	 1.875000e+00
-9.297883e-01	 -3.680947e-01	 2.250000e+00
-9.297883e-01	 -3.680947e-01	 2.625000e+00
-9.297883e-01	 -3.680947e-01	 3.000000e+00
-9.297883e-01	 -3.680947e-01	 3.750000e-01
-9.297883e-01	 3.680947e-01	 3.750000e-01
-9.297883e-01	 3.680947e-01	 2.250000e+00
-9.297883e-01	 3.680947e-01	 2.625000e+00
-9.297883e-01	 3.680947e-01	 0
-9.297883e-01	 3.680947e-01	 7.500000e-01
-9.297883e-01	 3.680947e-01	 1.500000e+00
-9.297883e-01	 3.680947e-01	 1.875000e+00
-9.297883e-01	 3.680947e-01	 3.000000e+00
-9.297883e-01	 3.680947e-01	 1.125000e+00
-9.181659e-01	 3.634935e-01	 7.500000e-01
-9.181659e-01	 -3.634935e-01	 0
-9.181659e-01	 -3.634935e-01	 7.500000e-01
-9.181659e-01	 -3.634935e-01	 2.250000e+00
-9.181659e-01	 -3.634935e-01	 3
-9.181659e-01	 3.634935e-01	 0
-9.181659e-01	 3.634935e-01	 2.250000e+00
-9.181659e-01	 3.634935e-01	 3
-9.181659e-01	 -3.634935e-01	 1.500000e+00
-9.181659e-01	 3.634935e-01	 1.500000e+00
-9.065436e-01	 -3.588923e-01	 1.125000e+00
-9.065436e-01	 -3.588923e-01	 2.625000e+00
-9.065436e-01	 -3.588923e-01	 0
-9.065436e-01	 -3.588923e-01	 3.750000e-01
-9.065436e-01	 -3.588923e-01	 1.500000e+00
-9.065436e-01	 -3.588923e-01	 3
-9.065436e-01	 3.588923e-01	 2.625000e+00
-9.065436e-01	 3.588923e-01	 1.125000e+00
-9.065436e-01	 3.588923e-01	 0
-9.065436e-01	 3.588923e-01	 3.750000e-01
-9.065436e-01	 3.588923e-01	 3
-9.065436e-01	 -3.588923e-01	 7.500000e-01
-9.065436e-01	 -3.588923e-01	 1.875000e+00
-9.065436e-01	 3.588923e-01	 1.875000e+00
-9.065436e-01	 3.588923e-01	 1.500000e+00
-9.065436e-01	 -3.588923e-01	 2.250000e+00
-9.065436e-01	 3.588923e-01	 7.500000e-01
-9.065436e-01	 3.588923e-01	 2.250000e+00
-8.949212e-01	 3.542912e-01	 1.500000e+00
-8.949212e-01	 -3.542912e-01	 1.500000e+00
-8.949212e-01	 -3.542912e-01	 0
-8.949212e-01	 -3.542912e-01	 3.000000e+00
-8.949212e-01	 3.542912e-01	 0
-8.949212e-01	 3.542912e-01	 3.000000e+00
-8.949212e-01	 -3.542912e-01	 2.250000e+00
-8.949212e-01	 -3.542912e-01	 7.500000e-01
-8.949212e-01	 3.542912e-01	 2.250000e+00
-8.949212e-01	 3.542912e-01	 7.500000e-01
-8.832989e-01	 -3.496900e-01	 1.125000e+00
-8.832989e-01	 -3.496900e-01	 1.875000e+00
-8.832989e-01	 -3.496900e-01	 2.625000e+00
-8.832989e-01	 -3.496900e-01	 2.250000e+00
-8.832989e-01	 3.496900e-01	 1.125000e+00
-8.832989e-01	 -3.496900e-01	 0
-8.832989e-01	 -3.496900e-01	 3.000000e+00
-8.832989e-01	 -3.496900e-01	 3.750000e-01
-8.832989e-01	 -3.496900e-01	 7.500000e-01
-8.832989e-01	 3.496900e-01	 3.750000e-01
-8.832989e-01	 3.496900e-01	 7.500000e-01
-8.832989e-01	 3.496900e-01	 2.250000e+00
-8.832989e-01	 3.496900e-01	 2.625000e+00
-8.832989e-01	 3.496900e-01	 0
-8.832989e-01	 3.496900e-01	 1.875000e+00
-8.832989e-01	 3.496900e-01	 3.000000e+00
-8.832989e-01	 -3.496900e-01	 1.500000e+00
-8.832989e-01	 3.496900e-01	 1.500000e+00
-8.369955e-01	 -5.472098e-01	 0
-8.369955e-01	 -5.472098e-01	 7.500000e-01
-8.369955e-01	 -5.472098e-01	 1.500000e+00
-8.369955e-01	 -5.472098e-01	 2.250000e+00
-8.369955e-01	 -5.472098e-01	 3
-8.369955e-01	 5.472098e-01	 0
-8.369955e-01	 5.472098e-01	 7.500000e-01
-8.369955e-01	 5.472098e-01	 1.500000e+00
-8.369955e-01	 5.472098e-01	 2.250000e+00
-8.369955e-01	 5.472098e-01	 3
-8.160706e-01	 -5.335295e-01	 7.500000e-01
-8.160706e-01	 5.335295e-01	 7.500000e-01
-8.160706e-01	 -5.335295e-01	 1.500000e+00
-8.160706e-01	 -5.335295e-01	 2.250000e+00
-8.160706e-01	 5.335295e-01	 1.500000e+00
-8.160706e-01	 5.335295e-01	 2.250000e+00
-8.160706e-01	 -5.335295e-01	 0
-8.160706e-01	 -5.335295e-01	 3.000000e+00
-8.160706e-01	 5.335295e-01	 0
-8.160706e-01	 5.335295e-01	 3.000000e+00
-7.951457e-01	 -5.198493e-01	 7.500000e-01
-7.951457e-01	 5.198493e-01	 7.500000e-01
-7.951457e-01	 -5.198493e-01	 0
-7.951457e-01	 -5.198493e-01	 1.500000e+00
-7.951457e-01	 -5.198493e-01	 2.250000e+00
-7.951457e-01	 -5.198493e-01	 3
-7.951457e-01	 5.198493e-01	 0
-7.951457e-01	 5.198493e-01	 1.500000e+00
-7.951457e-01	 5.198493e-01	 2.250000e+00
-7.951457e-01	 5.198493e-01	 3
-7.071068e-01	 -7.071068e-01	 0
-7.071068e-01	 -7.071068e-01	 3.750000e-01
-7.071068e-01	 -7.071068e-01	 7.500000e-01
-7.071068e-01	 -7.071068e-01	 1.125000e+00
-7.071068e-01	 -7.071068e-01	 1.500000e+00
-7.071068e-01	 -7.071068e-01	 1.875000e+00
-7.071068e-01	 -7.071068e-01	 2.250000e+00
-7.071068e-01	 -7.071068e-01	 2.625000e+00
-7.071068e-01	 -7.071068e-01	 3.000000e+00
-7.071068e-01	 7.071068e-01	 0
-7.071068e-01	 7.071068e-01	 3.750000e-01
-7.071068e-01	 7.071068e-01	 7.500000e-01
-7.071068e-01	 7.071068e-01	 1.125000e+00
-7.071068e-01	 7.071068e-01	 1.500000e+00
-7.071068e-01	 7.071068e-01	 1.875000e+00
-7.071068e-01	 7.071068e-01	 2.250000e+00
-7.071068e-01	 7.071068e-01	 2.625000e+00
-7.071068e-01	 7.071068e-01	 3.000000e+00
-6.982679e-01	 -6.982679e-01	 7.500000e-01
-6.982679e-01	 6.982679e-01	 7.500000e-01
-6.982679e-01	 -6.982679e-01	 0
-6.982679e-01	 -6.982679e-01	 2.250000e+00
-6.982679e-01	 -6.982679e-01	 3.000000e+00
-6.982679e-01	 6.982679e-01	 0
-6.982679e-01	 6.982679e-01	 2.250000e+00
-6.982679e-01	 6.982679e-01	 3.000000e+00
-6.982679e-01	 -6.982679e-01	 1.500000e+00
-6.982679e-01	 6.982679e-01	 1.500000e+00
-6.894291e-01	 -6.894291e-01	 3.750000e-01
-6.894291e-01	 -6.894291e-01	 2.625000e+00
-6.894291e-01	 -6.894291e-01	 0
-6.894291e-01	 -6.894291e-01	 1.500000e+00
-6.894291e-01	 -6.894291e-01	 2.250000e+00
-6.894291e-01	 -6.894291e-01	 3.000000e+00
-6.894291e-01	 6.894291e-01	 3.750000e-01
-6.894291e-01	 6.894291e-01	 2.625000e+00
-6.894291e-01	 -6.894291e-01	 1.875000e+00
-6.894291e-01	 6.894291e-01	 1.875000e+00
-6.894291e-01	 -6.894291e-01	 7.500000e-01
-6.894291e-01	 -6.894291e-01	 1.125000e+00
-6.894291e-01	 6.894291e-01	 0
-6.894291e-01	 6.894291e-01	 1.500000e+00
-6.894291e-01	 6.894291e-01	 2.250000e+00
-6.894291e-01	 6.894291e-01	 3.000000e+00
-6.894291e-01	 6.894291e-01	 7.500000e-01
-6.894291e-01	 6.894291e-01	 1.125000e+00
-6.805903e-01	 6.805903e-01	 7.500000e-01
-6.805903e-01	 -6.805903e-01	 7.500000e-01
-6.805903e-01	 -6.805903e-01	 0
-6.805903e-01	 -6.805903e-01	 1.500000e+00
-6.805903e-01	 -6.805903e-01	 3.000000e+00
-6.805903e-01	 6.805903e-01	 0
-6.805903e-01	 6.805903e-01	 1.500000e+00
-6.805903e-01	 6.805903e-01	 3.000000e+00
-6.805903e-01	 6.805903e-01	 2.250000e+00
-6.805903e-01	 -6.805903e-01	 2.250000e+00
-6.717514e-01	 -6.717514e-01	 2.625000e+00
-6.717514e-01	 6.717514e-01	 2.625000e+00
-6.717514e-01	 -6.717514e-01	 0
-6.717514e-01	 -6.717514e-01	 3.750000e-01
-6.717514e-01	 -6.717514e-01	 7.500000e-01
-6.717514e-01	 -6.717514e-01	 1.125000e+00
-6.717514e-01	 -6.717514e-01	 1.875000e+00
-6.717514e-01	 -6.717514e-01	 3.000000e+00
-6.717514e-01	 -6.717514e-01	 2.250000e+00
-6.717514e-01	 6.717514e-01	 1.500000e+00
-6.717514e-01	 6.717514e-01	 0
-6.717514e-01	 6.717514e-01	 3.750000e-01
-6.717514e-01	 6.717514e-01	 7.500000e-01
-6.717514e-01	 6.717514e-01	 1.125000e+00
-6.717514e-01	 6.717514e-01	 1.875000e+00
-6.717514e-01	 6.717514e-01	 3.000000e+00
-6.717514e-01	 -6.717514e-01	 1.500000e+00
-6.717514e-01	 6.717514e-01	 2.250000e+00
-5.472098e-01	 -8.369955e-01	 0
-5.472098e-01	 -8.369955e-01	 7.500000e-01
-5.472098e-01	 -8.369955e-01	 1.500000e+00
-5.472098e-01	 -8.369955e-01	 2.250000e+00
-5.472098e-01	 -8.369955e-01	 3
-5.472098e-01	 8.369955e-01	 0
-5.472098e-01	 8.369955e-01	 7.500000e-01
-5.472098e-01	 8.369955e-01	 1.500000e+00
-5.472098e-01	 8.369955e-01	 2.250000e+00
-5.472098e-01	 8.369955e-01	 3
-5.335295e-01	 -8.160706e-01	 1.500000e+00
-5.335295e-01	 -8.160706e-01	 2.250000e+00
-5.335295e-01	 8.160706e-01	 0
-5.335295e-01	 8.160706e-01	 3.000000e+00
[...]
POINT_DATA 832
VECTORS displacement float
0	 0	 -1.631691e-06
-3.477714e-06	 -7.853171e-12	 -1.495793e-06
-6.389804e-06	 -1.470625e-11	 -1.153780e-06
-8.395946e-06	 -1.938596e-11	 -6.195780e-07
-9.036549e-06	 -2.141751e-11	 -1.426869e-13
-8.395947e-06	 -1.999026e-11	 6.195778e-07
-6.389806e-06	 -1.558307e-11	 1.153780e-06
-3.477716e-06	 -8.457604e-12	 1.495794e-06
0	 0	 1.631691e-06
0	 0	 -1.507502e-06
-9.050991e-06	 -2.315514e-11	 -1.161088e-13
0	 0	 1.507503e-06
-6.400018e-06	 -1.687055e-11	 1.065965e-06
-6.400017e-06	 -1.587618e-11	 -1.065965e-06
-6.056598e-06	 -2.675807e-08	 -1.082404e-06
0	 0	 -1.530751e-06
-8.565325e-06	 -3.784237e-08	 -2.704501e-13
0	 0	 1.530751e-06
-6.056567e-06	 2.672432e-08	 1.082399e-06
0	 0	 -1.530743e-06
-8.565279e-06	 3.779458e-08	 1.129229e-14
0	 0	 1.530743e-06
-6.056567e-06	 2.672529e-08	 -1.082399e-06
-6.056601e-06	 -2.675913e-08	 1.082404e-06
-6.408150e-06	 -1.704280e-11	 -9.782601e-07
-8.417828e-06	 -2.252181e-11	 -5.310513e-07
0	 0	 -1.383469e-06
-3.486778e-06	 -9.100937e-12	 -1.282071e-06
-8.417830e-06	 -2.330096e-11	 5.310512e-07
-3.486780e-06	 -9.880270e-12	 1.282071e-06
0	 0	 1.383469e-06
-9.062494e-06	 -2.488780e-11	 -8.963202e-14
-6.408152e-06	 -1.815431e-11	 9.782601e-07
-9.071956e-06	 -2.660503e-11	 -6.310258e-14
-6.414842e-06	 -1.942643e-11	 8.904455e-07
0	 0	 -1.259280e-06
-6.414841e-06	 -1.819925e-11	 -8.904455e-07
0	 0	 1.259280e-06
0	 0	 -1.300068e-06
0	 0	 1.300068e-06
-8.603532e-06	 8.814691e-08	 -1.713597e-13
0	 0	 -1.300062e-06
0	 0	 1.300062e-06
-8.603487e-06	 -8.820003e-08	 5.071125e-15
-6.083584e-06	 -6.236624e-08	 -9.192828e-07
-6.083614e-06	 6.232988e-08	 -9.192870e-07
-6.083617e-06	 6.232868e-08	 9.192870e-07
-6.083584e-06	 -6.236744e-08	 9.192828e-07
0	 0	 -1.134751e-06
-3.491620e-06	 -1.034029e-11	 -1.067840e-06
-8.429517e-06	 -2.563680e-11	 -4.423138e-07
-9.078143e-06	 -2.833271e-11	 -3.639533e-14
-8.429518e-06	 -2.659005e-11	 4.423137e-07
-6.419218e-06	 -2.070655e-11	 8.023904e-07
-3.491621e-06	 -1.129376e-11	 1.067840e-06
0	 0	 1.134751e-06
-6.419216e-06	 -1.936248e-11	 -8.023904e-07
-8.632582e-06	 2.167269e-07	 -7.210817e-14
0	 0	 -1.069211e-06
0	 0	 1.069211e-06
-6.104127e-06	 -1.532911e-07	 7.560432e-07
0	 0	 -1.069207e-06
-8.632539e-06	 -2.167853e-07	 -1.180915e-15
0	 0	 1.069207e-06
-6.104156e-06	 1.532497e-07	 -7.560464e-07
-6.104159e-06	 1.532484e-07	 7.560464e-07
-6.104127e-06	 -1.532896e-07	 -7.560432e-07
-6.594598e-06	 2.704537e-07	 -4.495628e-07
0	 0	 -1.183734e-06
-5.025340e-06	 2.245441e-07	 -8.370265e-07
-7.106907e-06	 3.175523e-07	 -3.192884e-13
-6.594601e-06	 2.704527e-07	 4.495624e-07
-5.025344e-06	 2.245427e-07	 8.370264e-07
-2.731574e-06	 1.120249e-07	 1.085340e-06
0	 0	 1.183734e-06
-2.731571e-06	 1.120259e-07	 -1.085340e-06
-2.731543e-06	 -1.120475e-07	 -1.085328e-06
-5.025286e-06	 -2.245858e-07	 8.370170e-07
-2.731542e-06	 -1.120486e-07	 1.085328e-06
0	 0	 -1.183721e-06
-5.025288e-06	 -2.245843e-07	 -8.370170e-07
-7.106829e-06	 -3.176112e-07	 1.637764e-13
-6.594526e-06	 -2.705084e-07	 4.495576e-07
0	 0	 1.183721e-06
-6.594527e-06	 -2.705073e-07	 -4.495574e-07
-5.064043e-06	 -3.033464e-07	 -7.738756e-07
0	 0	 -1.094437e-06
-5.064096e-06	 3.033050e-07	 -7.738841e-07
-5.064099e-06	 3.033037e-07	 7.738841e-07
0	 0	 1.094438e-06
0	 0	 -1.094425e-06
-5.064042e-06	 -3.033480e-07	 7.738756e-07
0	 0	 1.094425e-06
-7.161715e-06	 4.289371e-07	 -2.590652e-13
-7.161638e-06	 -4.289977e-07	 1.315233e-13
-6.693318e-06	 4.786052e-07	 -3.859143e-07
-2.772465e-06	 1.982441e-07	 9.316793e-07
0	 0	 -1.005219e-06
-2.772462e-06	 1.982451e-07	 -9.316791e-07
-7.214836e-06	 5.409133e-07	 -1.990980e-13
0	 0	 1.005220e-06
-2.772433e-06	 -1.982691e-07	 9.316691e-07
-6.693248e-06	 -4.786618e-07	 -3.859099e-07
0	 0	 -1.005209e-06
-2.772434e-06	 -1.982679e-07	 -9.316692e-07
0	 0	 1.005209e-06
-5.101657e-06	 3.824841e-07	 -7.107976e-07
-6.693320e-06	 4.786042e-07	 3.859140e-07
-6.693247e-06	 -4.786631e-07	 3.859101e-07
-7.214759e-06	 -5.409756e-07	 9.942660e-14
-5.101661e-06	 3.824828e-07	 7.107976e-07
-5.101606e-06	 -3.825267e-07	 -7.107899e-07
-5.101604e-06	 -3.825284e-07	 7.107899e-07
-7.266540e-06	 -6.525554e-07	 6.731193e-14
-7.266616e-06	 6.524915e-07	 -1.390503e-13
0	 0	 -9.158794e-07
0	 0	 9.158797e-07
0	 0	 -9.158701e-07
0	 0	 9.158700e-07
-5.138275e-06	 4.613804e-07	 6.476246e-07
-5.138272e-06	 4.613818e-07	 -6.476246e-07
-5.138219e-06	 -4.614273e-07	 6.476179e-07
-5.138220e-06	 -4.614255e-07	 -6.476179e-07
-6.786065e-06	 6.880598e-07	 -3.220952e-07
-6.786068e-06	 6.880588e-07	 3.220951e-07
-2.810882e-06	 2.850030e-07	 7.776065e-07
-5.173734e-06	 5.411758e-07	 5.842898e-07
-6.785997e-06	 -6.881194e-07	 -3.220919e-07
0	 0	 -8.263105e-07
0	 0	 8.263107e-07
-2.810880e-06	 2.850040e-07	 -7.776064e-07
-5.173730e-06	 5.411772e-07	 -5.842898e-07
-2.810852e-06	 -2.850280e-07	 -7.775987e-07
-5.173679e-06	 -5.412220e-07	 -5.842840e-07
-5.173678e-06	 -5.412239e-07	 5.842840e-07
-2.810851e-06	 -2.850294e-07	 7.775986e-07
0	 0	 -8.263024e-07
-6.785996e-06	 -6.881208e-07	 3.220919e-07
0	 0	 8.263023e-07
-7.316762e-06	 7.653392e-07	 -7.857754e-14
-7.316686e-06	 -7.654049e-07	 3.496502e-14
0	 0	 -6.552421e-07
-3.614775e-06	 9.201654e-07	 -4.633263e-07
-5.112067e-06	 1.301309e-06	 -2.882362e-13
-3.614779e-06	 9.201640e-07	 4.633263e-07
0	 0	 6.552426e-07
0	 0	 -6.552262e-07
-3.614714e-06	 -9.202117e-07	 -4.633147e-07
-5.111976e-06	 -1.301377e-06	 2.725583e-13
-3.614712e-06	 -9.202138e-07	 4.633147e-07
0	 0	 6.552256e-07
-3.736277e-06	 1.098117e-06	 -3.943317e-07
-3.736216e-06	 -1.098163e-06	 -3.943222e-07
-5.283896e-06	 1.552971e-06	 -1.842041e-13
-3.736280e-06	 1.098116e-06	 3.943317e-07
-5.283806e-06	 -1.553039e-06	 1.710854e-13
-3.736214e-06	 -1.098166e-06	 3.943222e-07
0	 0	 -5.576690e-07
0	 0	 5.576694e-07
0	 0	 -5.576560e-07
0	 0	 5.576556e-07
-3.856272e-06	 1.278586e-06	 -3.252949e-07
-3.856211e-06	 -1.278632e-06	 -3.252876e-07
0	 0	 -4.600363e-07
-5.453595e-06	 1.808192e-06	 -8.008070e-14
-3.856276e-06	 1.278584e-06	 3.252949e-07
0	 0	 4.600365e-07
0	 0	 -4.600262e-07
-5.453505e-06	 -1.808260e-06	 6.950474e-14
-3.856209e-06	 -1.278634e-06	 3.252876e-07
0	 0	 4.600260e-07
0	 0	 -1.015218e-11
-1.144831e-06	 1.144792e-06	 -9.333527e-12
-2.123400e-06	 2.123328e-06	 -7.272826e-12
-2.763867e-06	 2.763772e-06	 -3.990796e-12
-3.002942e-06	 3.002839e-06	 -1.356319e-13
-2.763869e-06	 2.763771e-06	 3.809059e-12
-2.123402e-06	 2.123327e-06	 7.263395e-12
-1.144832e-06	 1.144791e-06	 9.496570e-12
0	 0	 1.040495e-11
0	 0	 4.348390e-12
-1.144803e-06	 -1.144814e-06	 4.059853e-12
-2.123347e-06	 -2.123369e-06	 3.265529e-12
-2.763797e-06	 -2.763827e-06	 1.930132e-12
-3.002864e-06	 -3.002899e-06	 2.674894e-13
-2.763795e-06	 -2.763829e-06	 -1.584399e-12
-2.123345e-06	 -2.123372e-06	 -3.275889e-12
-1.144801e-06	 -1.144816e-06	 -4.426276e-12
0	 0	 -4.904023e-12
-2.210753e-06	 2.210681e-06	 -6.560983e-12
-2.210699e-06	 -2.210722e-06	 3.025169e-12
0	 0	 -9.170730e-12
-2.210755e-06	 2.210680e-06	 6.551589e-12
0	 0	 9.373134e-12
0	 0	 4.060283e-12
-2.210697e-06	 -2.210724e-06	 -3.035530e-12
0	 0	 -4.511768e-12
-3.126479e-06	 3.126374e-06	 -1.104846e-13
-3.126399e-06	 -3.126434e-06	 2.154157e-13
-1.239691e-06	 1.239652e-06	 -7.620512e-12
-1.239693e-06	 1.239652e-06	 7.724703e-12
0	 0	 -8.191809e-12
-3.249963e-06	 3.249859e-06	 -8.548790e-14
-2.298072e-06	 2.297997e-06	 5.841677e-12
0	 0	 8.344144e-12
-1.239662e-06	 -1.239674e-06	 3.533133e-12
-1.239660e-06	 -1.239675e-06	 -3.782158e-12
-2.992882e-06	 2.992784e-06	 3.116663e-12
-2.992805e-06	 -2.992840e-06	 -1.400737e-12
-2.298070e-06	 2.297997e-06	 -5.851032e-12
-2.992880e-06	 2.992784e-06	 -3.239549e-12
0	 0	 3.772190e-12
-3.249882e-06	 -3.249918e-06	 1.635916e-13
-2.298013e-06	 -2.298040e-06	 -2.795356e-12
0	 0	 -4.120025e-12
-2.298015e-06	 -2.298038e-06	 2.784994e-12
-2.992807e-06	 -2.992838e-06	 1.629071e-12
-2.384821e-06	 -2.384844e-06	 2.544592e-12
-2.384877e-06	 2.384804e-06	 -5.140301e-12
0	 0	 -7.211805e-12
-3.372727e-06	 3.372622e-06	 -6.047159e-14
0	 0	 7.314031e-12
0	 0	 3.483823e-12
-3.372645e-06	 -3.372680e-06	 1.117182e-13
0	 0	 -3.727911e-12
-2.384819e-06	 -2.384846e-06	 -2.554954e-12
-2.384879e-06	 2.384804e-06	 5.130984e-12
-1.334208e-06	 1.334167e-06	 5.948904e-12
-1.334174e-06	 -1.334189e-06	 -3.136498e-12
0	 0	 -6.228130e-12
-1.334206e-06	 1.334167e-06	 -5.903769e-12
-2.472002e-06	 2.471929e-06	 -4.426823e-12
-3.221060e-06	 3.220963e-06	 -2.486613e-12
-3.221061e-06	 3.220963e-06	 2.422783e-12
0	 0	 6.279819e-12
-2.472004e-06	 2.471929e-06	 4.417544e-12
-3.495857e-06	 -3.495892e-06	 5.945295e-14
0	 0	 3.195002e-12
-1.334176e-06	 -1.334188e-06	 3.005300e-12
-2.471946e-06	 -2.471968e-06	 2.303592e-12
-3.220985e-06	 -3.221015e-06	 1.327248e-12
-3.220983e-06	 -3.221017e-06	 -1.216740e-12
0	 0	 -3.334557e-12
-3.495940e-06	 3.495836e-06	 -3.524086e-14
-2.471943e-06	 -2.471970e-06	 -2.313954e-12
0	 0	 6.552243e-07
-9.202284e-07	 3.614711e-06	 4.633136e-07
-1.301400e-06	 5.111974e-06	 6.251360e-14
-9.202290e-07	 3.614712e-06	 -4.633136e-07
0	 0	 -6.552244e-07
0	 0	 6.552343e-07
-9.201902e-07	 -3.614736e-06	 4.633207e-07
-1.301344e-06	 -5.112010e-06	 1.798997e-13
-9.201883e-07	 -3.614737e-06	 -4.633208e-07
0	 0	 -6.552347e-07
-1.553065e-06	 5.283806e-06	 3.826758e-14
-1.098183e-06	 3.736216e-06	 -3.943214e-07
0	 0	 5.576630e-07
0	 0	 -5.576633e-07
-1.553005e-06	 -5.283839e-06	 1.108880e-13
-1.098140e-06	 -3.736239e-06	 -3.943274e-07
-1.098183e-06	 3.736214e-06	 3.943214e-07
0	 0	 5.576546e-07
0	 0	 -5.576547e-07
-1.098142e-06	 -3.736238e-06	 3.943274e-07
-1.278610e-06	 -3.856233e-06	 3.252918e-07
-1.278654e-06	 3.856211e-06	 3.252870e-07
0	 0	 4.600253e-07
-1.808290e-06	 5.453507e-06	 1.398013e-14
-1.278655e-06	 3.856213e-06	 -3.252870e-07
0	 0	 -4.600253e-07
0	 0	 4.600321e-07
-1.808226e-06	 -5.453537e-06	 4.180971e-14
-1.278608e-06	 -3.856234e-06	 -3.252919e-07
0	 0	 -4.600322e-07
-2.705129e-07	 6.594554e-06	 4.495589e-07
-2.704811e-07	 -6.594552e-06	 4.495600e-07
0	 0	 1.183724e-06
-2.245891e-07	 5.025307e-06	 8.370192e-07
-3.176167e-07	 7.106859e-06	 2.482883e-13
-2.705126e-07	 6.594556e-06	 -4.495585e-07
0	 0	 -1.183724e-06
0	 0	 1.183727e-06
-2.245648e-07	 -5.025306e-06	 8.370216e-07
-3.175820e-07	 -7.106855e-06	 3.273437e-15
-2.704805e-07	 -6.594551e-06	 -4.495600e-07
-2.245639e-07	 -5.025305e-06	 -8.370216e-07
-1.120365e-07	 -2.731553e-06	 -1.085334e-06
0	 0	 -1.183727e-06
-1.120502e-07	 2.731553e-06	 1.085331e-06
-2.245888e-07	 5.025310e-06	 -8.370193e-07
-1.120499e-07	 2.731555e-06	 -1.085331e-06
-1.120371e-07	 -2.731553e-06	 1.085334e-06
-4.290054e-07	 7.161669e-06	 1.999349e-13
-4.289678e-07	 -7.161664e-06	 9.107709e-16
-3.033528e-07	 5.064063e-06	 7.738776e-07
0	 0	 1.094428e-06
-3.033525e-07	 5.064066e-06	 -7.738776e-07
0	 0	 -1.094428e-06
0	 0	 1.094431e-06
-3.033266e-07	 -5.064061e-06	 7.738798e-07
-3.033255e-07	 -5.064061e-06	 -7.738799e-07
0	 0	 -1.094431e-06
-3.825345e-07	 5.101629e-06	 -7.107917e-07
-3.825054e-07	 -5.101623e-06	 -7.107939e-07
-4.786347e-07	 -6.693272e-06	 3.859121e-07
-1.982564e-07	 -2.772444e-06	 -9.316743e-07
0	 0	 1.005211e-06
-1.982723e-07	 2.772445e-06	 9.316714e-07
0	 0	 -1.005211e-06
-5.409855e-07	 7.214791e-06	 1.517531e-13
0	 0	 1.005214e-06
-1.982572e-07	 -2.772444e-06	 9.316743e-07
-5.409451e-07	 -7.214785e-06	 -1.382654e-15
0	 0	 -1.005214e-06
-4.786715e-07	 6.693276e-06	 3.859111e-07
-4.786714e-07	 6.693279e-06	 -3.859109e-07
-3.825346e-07	 5.101626e-06	 7.107917e-07
-3.825066e-07	 -5.101623e-06	 7.107938e-07
-4.786339e-07	 -6.693272e-06	 -3.859121e-07
-1.982721e-07	 2.772447e-06	 -9.316716e-07
-6.525676e-07	 7.266573e-06	 1.034730e-13
-4.614350e-07	 5.138245e-06	 -6.476194e-07
-4.614037e-07	 -5.138238e-06	 -6.476215e-07
0	 0	 9.158751e-07
0	 0	 -9.158751e-07
-6.525244e-07	 -7.266566e-06	 -3.644768e-15
0	 0	 9.158721e-07
0	 0	 -9.158723e-07
-4.614349e-07	 5.138241e-06	 6.476194e-07
-4.614051e-07	 -5.138238e-06	 6.476215e-07
-6.881332e-07	 6.786026e-06	 3.220927e-07
0	 0	 8.263041e-07
-6.881332e-07	 6.786029e-06	 -3.220925e-07
0	 0	 -8.263042e-07
-7.654192e-07	 7.316720e-06	 5.486844e-14
0	 0	 8.263070e-07
0	 0	 -8.263070e-07
-6.880913e-07	 -6.786020e-06	 3.220937e-07
-6.880903e-07	 -6.786020e-06	 -3.220937e-07
-2.850160e-07	 -2.810861e-06	 -7.776029e-07
-2.850341e-07	 2.810863e-06	 7.776003e-07
-5.412330e-07	 5.173701e-06	 5.842853e-07
-5.412332e-07	 5.173704e-06	 -5.842853e-07
-2.850341e-07	 2.810866e-06	 -7.776004e-07
-7.653732e-07	 -7.316712e-06	 -5.969474e-15
-2.850170e-07	 -2.810862e-06	 7.776029e-07
-5.411998e-07	 -5.173696e-06	 -5.842873e-07
-5.412013e-07	 -5.173697e-06	 5.842872e-07
2.672551e-08	 6.056607e-06	 1.082404e-06
2.674290e-08	 -6.056579e-06	 1.082402e-06
0	 0	 1.530750e-06
3.779601e-08	 8.565339e-06	 3.701821e-13
0	 0	 -1.530751e-06
0	 0	 1.530747e-06
3.782040e-08	 -8.565295e-06	 -1.774506e-13
0	 0	 -1.530747e-06
2.672613e-08	 6.056611e-06	 -1.082404e-06
2.674322e-08	 -6.056577e-06	 -1.082402e-06
-6.236797e-08	 6.083624e-06	 9.192866e-07
0	 0	 1.300067e-06
0	 0	 -1.300068e-06
-6.234770e-08	 -6.083596e-06	 9.192850e-07
-6.234714e-08	 -6.083594e-06	 -9.192850e-07
0	 0	 1.300065e-06
0	 0	 -1.300065e-06
-6.236744e-08	 6.083629e-06	 -9.192866e-07
-8.817257e-08	 -8.603503e-06	 -1.150336e-13
-8.820126e-08	 8.603547e-06	 2.302550e-13
-2.167562e-07	 -8.632554e-06	 -5.261236e-14
0	 0	 1.069210e-06
-2.167893e-07	 8.632599e-06	 9.019099e-14
0	 0	 -1.069210e-06
0	 0	 1.069209e-06
0	 0	 -1.069209e-06
-1.532929e-07	 6.104172e-06	 -7.560459e-07
-1.532934e-07	 6.104167e-06	 7.560459e-07
-1.532702e-07	 -6.104139e-06	 7.560450e-07
-1.532694e-07	 -6.104136e-06	 -7.560450e-07
0	 0	 1.631699e-06
-8.149727e-12	 3.477740e-06	 1.495801e-06
-1.507480e-11	 6.389852e-06	 1.153786e-06
-1.946225e-11	 8.396010e-06	 6.195812e-07
-2.101149e-11	 9.036619e-06	 3.548692e-13
-1.916121e-11	 8.396014e-06	 -6.195808e-07
-1.464006e-11	 6.389857e-06	 -1.153786e-06
-7.848739e-12	 3.477744e-06	 -1.495801e-06
0	 0	 -1.631700e-06
0	 0	 1.507509e-06
-2.284231e-11	 9.051062e-06	 2.851720e-13
0	 0	 -1.507510e-06
-1.591078e-11	 6.400069e-06	 -1.065970e-06
-1.639300e-11	 6.400065e-06	 1.065970e-06
-1.770697e-11	 6.408198e-06	 9.782645e-07
-2.289122e-11	 8.417893e-06	 5.310538e-07
0	 0	 1.383475e-06
-9.590280e-12	 3.486805e-06	 1.282077e-06
-2.252053e-11	 8.417896e-06	 -5.310535e-07
-9.219663e-12	 3.486808e-06	 -1.282077e-06
0	 0	 -1.383475e-06
-2.466731e-11	 9.062564e-06	 2.158516e-13
-1.717749e-11	 6.408203e-06	 -9.782645e-07
-2.647609e-11	 9.072026e-06	 1.463958e-13
-1.843298e-11	 6.414894e-06	 -8.904492e-07
0	 0	 1.259285e-06
-1.900923e-11	 6.414889e-06	 8.904492e-07
0	 0	 -1.259285e-06
0	 0	 1.134756e-06
-1.102136e-11	 3.491646e-06	 1.067844e-06
-2.629750e-11	 8.429581e-06	 4.423155e-07
-2.829620e-11	 9.078214e-06	 7.638919e-14
-2.585739e-11	 8.429585e-06	 -4.423154e-07
-1.969624e-11	 6.419269e-06	 -8.023934e-07
-1.058136e-11	 3.491649e-06	 -1.067844e-06
0	 0	 -1.134756e-06
-2.031975e-11	 6.419264e-06	 8.023934e-07
-2.349003e-13	 -6.419220e-06	 8.023905e-07
0	 0	 1.134752e-06
-1.729147e-13	 -3.491623e-06	 1.067840e-06
-1.153986e-13	 -8.429521e-06	 4.423138e-07
9.830760e-14	 -9.078146e-06	 -7.026400e-14
3.139349e-13	 -8.429518e-06	 -4.423139e-07
3.749766e-13	 -6.419217e-06	 -8.023906e-07
2.562367e-13	 -3.491620e-06	 -1.067840e-06
0	 0	 -1.134752e-06
0	 0	 1.259280e-06
3.174727e-13	 -6.414845e-06	 8.904457e-07
0	 0	 -1.259280e-06
8.277255e-13	 -9.071958e-06	 -1.247047e-13
8.541998e-13	 -6.414841e-06	 -8.904457e-07
1.551096e-12	 -9.062496e-06	 -1.786964e-13
1.329598e-12	 -6.408151e-06	 -9.782603e-07
0	 0	 1.383469e-06
4.372558e-13	 -3.486781e-06	 1.282072e-06
1.609814e-12	 -8.417830e-06	 -5.310515e-07
7.625839e-13	 -3.486779e-06	 -1.282071e-06
0	 0	 -1.383469e-06
8.651169e-13	 -6.408154e-06	 9.782603e-07
1.284307e-12	 -8.417833e-06	 5.310512e-07
1.419500e-12	 -6.400021e-06	 1.065965e-06
1.810997e-12	 -6.400017e-06	 -1.065965e-06
0	 0	 1.507503e-06
2.283477e-12	 -9.050994e-06	 -2.325855e-13
0	 0	 -1.507503e-06
0	 0	 1.631692e-06
1.053403e-12	 -3.477717e-06	 1.495794e-06
1.977222e-12	 -6.389808e-06	 1.153780e-06
2.698076e-12	 -8.395950e-06	 6.195779e-07
3.020126e-12	 -9.036551e-06	 -2.868048e-13
2.919242e-12	 -8.395948e-06	 -6.195782e-07
2.295098e-12	 -6.389805e-06	 -1.153780e-06
1.274394e-12	 -3.477715e-06	 -1.495794e-06
0	 0	 -1.631691e-06
1.532515e-07	 6.104200e-06	 7.560491e-07
1.532523e-07	 6.104203e-06	 -7.560491e-07
1.532696e-07	 -6.104152e-06	 7.560450e-07
1.532700e-07	 -6.104148e-06	 -7.560450e-07
0	 0	 1.069215e-06
0	 0	 -1.069215e-06
0	 0	 1.069209e-06
2.167562e-07	 -8.632571e-06	 -8.688595e-14
0	 0	 -1.069209e-06
2.167309e-07	 8.632645e-06	 6.181580e-14
8.817444e-08	 -8.603520e-06	 -2.053198e-13
8.814844e-08	 8.603594e-06	 1.588229e-13
6.234898e-08	 -6.083606e-06	 -9.192853e-07
0	 0	 1.300073e-06
0	 0	 -1.300074e-06
6.233006e-08	 6.083658e-06	 9.192909e-07
6.233066e-08	 6.083661e-06	 -9.192909e-07
0	 0	 1.300066e-06
0	 0	 -1.300065e-06
6.234851e-08	 -6.083610e-06	 9.192852e-07
-2.675907e-08	 6.056644e-06	 -1.082409e-06
-2.674015e-08	 -6.056589e-06	 -1.082402e-06
0	 0	 1.530758e-06
-3.784330e-08	 8.565386e-06	 2.557852e-13
0	 0	 -1.530758e-06
0	 0	 1.530748e-06
-3.781665e-08	 -8.565313e-06	 -3.237113e-13
0	 0	 -1.530748e-06
-2.675943e-08	 6.056641e-06	 1.082409e-06
-2.674067e-08	 -6.056593e-06	 1.082402e-06
5.411859e-07	 5.173758e-06	 5.842911e-07
5.411875e-07	 5.173759e-06	 -5.842911e-07
2.850084e-07	 2.810895e-06	 7.776081e-07
7.653536e-07	 7.316799e-06	 7.673407e-15
2.850160e-07	 -2.810873e-06	 7.776025e-07
5.411997e-07	 -5.173717e-06	 5.842868e-07
5.411996e-07	 -5.173714e-06	 -5.842868e-07
2.850160e-07	 -2.810871e-06	 -7.776024e-07
6.880718e-07	 6.786101e-06	 3.220958e-07
6.880730e-07	 6.786102e-06	 -3.220958e-07
2.850095e-07	 2.810896e-06	 -7.776081e-07
0	 0	 8.263124e-07
0	 0	 -8.263124e-07
7.653718e-07	 -7.316739e-06	 -5.573153e-14
0	 0	 8.263064e-07
6.880894e-07	 -6.786044e-06	 -3.220935e-07
0	 0	 -8.263063e-07
6.880895e-07	 -6.786046e-06	 3.220934e-07
4.613890e-07	 5.138298e-06	 6.476262e-07
4.614037e-07	 -5.138258e-06	 6.476213e-07
0	 0	 9.158749e-07
0	 0	 -9.158748e-07
6.525036e-07	 7.266652e-06	 1.839501e-14
0	 0	 9.158817e-07
0	 0	 -9.158818e-07
4.613905e-07	 5.138300e-06	 -6.476262e-07
4.614037e-07	 -5.138255e-06	 -6.476213e-07
6.525233e-07	 -7.266592e-06	 -9.755806e-14
1.982565e-07	 -2.772453e-06	 -9.316743e-07
3.824899e-07	 5.101684e-06	 7.107994e-07
4.786142e-07	 6.693352e-06	 -3.859151e-07
3.825054e-07	 -5.101644e-06	 7.107939e-07
4.786335e-07	 -6.693296e-06	 -3.859123e-07
4.786334e-07	 -6.693298e-06	 3.859121e-07
0	 0	 1.005222e-06
1.982479e-07	 2.772477e-06	 9.316815e-07
5.409233e-07	 7.214871e-06	 2.905452e-14
0	 0	 -1.005222e-06
5.409444e-07	 -7.214812e-06	 -1.390436e-13
0	 0	 1.005215e-06
1.982564e-07	 -2.772455e-06	 9.316745e-07
0	 0	 -1.005214e-06
4.786133e-07	 6.693351e-06	 3.859152e-07
1.982488e-07	 2.772478e-06	 -9.316816e-07
3.824912e-07	 5.101685e-06	 -7.107994e-07
3.825055e-07	 -5.101641e-06	 -7.107939e-07
0	 0	 1.094440e-06
3.033093e-07	 5.064121e-06	 7.738862e-07
3.033104e-07	 5.064122e-06	 -7.738862e-07
0	 0	 -1.094440e-06
0	 0	 1.094432e-06
3.033259e-07	 -5.064079e-06	 -7.738802e-07
0	 0	 -1.094432e-06
3.033257e-07	 -5.064082e-06	 7.738802e-07
4.289449e-07	 7.161749e-06	 3.966137e-14
4.289675e-07	 -7.161691e-06	 -1.804554e-13
1.120271e-07	 2.731585e-06	 1.085343e-06
1.120366e-07	 -2.731564e-06	 1.085335e-06
2.245645e-07	 -5.025323e-06	 -8.370222e-07
1.120369e-07	 -2.731562e-06	 -1.085334e-06
0	 0	 1.183737e-06
2.245469e-07	 5.025365e-06	 8.370288e-07
3.175579e-07	 7.106940e-06	 5.028906e-14
2.704585e-07	 6.594631e-06	 -4.495638e-07
2.245478e-07	 5.025366e-06	 -8.370288e-07
1.120278e-07	 2.731586e-06	 -1.085343e-06
0	 0	 -1.183738e-06
0	 0	 1.183728e-06
2.245642e-07	 -5.025326e-06	 8.370221e-07
3.175819e-07	 -7.106882e-06	 -2.221018e-13
2.704807e-07	 -6.594576e-06	 -4.495604e-07
0	 0	 -1.183728e-06
2.704579e-07	 6.594630e-06	 4.495639e-07
2.704804e-07	 -6.594578e-06	 4.495601e-07
0	 0	 4.600356e-07
1.808223e-06	 5.453600e-06	 -4.908715e-14