# vtk DataFile Version 3.0
Unstructured Grid Example
ASCII
DATASET UNSTRUCTURED_GRID
POINTS 832 float
-1	 0	 0
-1	 0	 3.750000e-01
-1	 0	 7.500000e-01
-1	 0	 1.125000e+00
-1	 0	 1.500000e+00
-1	 0	 1.875000e+00
-1	 0	 2.250000e+00
-1	 0	 2.625000e+00
-1	 0	 3
-9.875000e-01	 0	 0
-9.875000e-01	 0	 1.500000e+00
-9.875000e-01	 0	 3
-9.875000e-01	 0	 2.250000e+00
-9.875000e-01	 0	 7.500000e-01
-9.833054e-01	 -1.819631e-01	 7.500000e-01
-9.833054e-01	 -1.819631e-01	 0
-9.833054e-01	 -1.819631e-01	 1.500000e+00
-9.833054e-01	 -1.819631e-01	 3.000000e+00
-9.833054e-01	 1.819631e-01	 2.250000e+00
-9.833054e-01	 1.819631e-01	 0
-9.833054e-01	 1.819631e-01	 1.500000e+00
-9.833054e-01	 1.819631e-01	 3.000000e+00
-9.833054e-01	 1.819631e-01	 7.500000e-01
-9.833054e-01	 -1.819631e-01	 2.250000e+00
-9.750000e-01	 0	 7.500000e-01
-9.750000e-01	 0	 1.125000e+00
-9.750000e-01	 0	 0
-9.750000e-01	 0	 3.750000e-01
-9.750000e-01	 0	 1.875000e+00
-9.750000e-01	 0	 2.625000e+00
-9.750000e-01	 0	 3
-9.750000e-01	 0	 1.500000e+00
-9.750000e-01	 0	 2.250000e+00
-9.625000e-01	 0	 1.500000e+00
-9.625000e-01	 0	 2.250000e+00
-9.625000e-01	 0	 0
-9.625000e-01	 0	 7.500000e-01
-9.625000e-01	 0	 3
-9.587227e-01	 -1.774140e-01	 0
-9.587227e-01	 -1.774140e-01	 3.000000e+00
-9.587227e-01	 -1.774140e-01	 1.500000e+00
-9.587227e-01	 1.774140e-01	 0
-9.587227e-01	 1.774140e-01	 3.000000e+00
-9.587227e-01	 1.774140e-01	 1.500000e+00
-9.587227e-01	 1.774140e-01	 7.500000e-01
-9.587227e-01	 -1.774140e-01	 7.500000e-01
-9.587227e-01	 -1.774140e-01	 2.250000e+00
-9.587227e-01	 1.774140e-01	 2.250000e+00
-9.500000e-01	 0	 0
-9.500000e-01	 0	 3.750000e-01
-9.500000e-01	 0	 1.125000e+00
-9.500000e-01	 0	 1.500000e+00
-9.500000e-01	 0	 1.875000e+00
-9.500000e-01	 0	 2.250000e+00
-9.500000e-01	 0	 2.625000e+00
-9.500000e-01	 0	 3
-9.500000e-01	 0	 7.500000e-01
-9.341401e-01	 -1.728649e-01	 1.500000e+00
-9.341401e-01	 -1.728649e-01	 0
-9.341401e-01	 -1.728649e-01	 3.000000e+00
-9.341401e-01	 1.728649e-01	 2.250000e+00
-9.341401e-01	 1.728649e-01	 0
-9.341401e-01	 1.728649e-01	 1.500000e+00
-9.341401e-01	 1.728649e-01	 3.000000e+00
-9.341401e-01	 -1.728649e-01	 7.500000e-01
-9.341401e-01	 -1.728649e-01	 2.250000e+00
-9.341401e-01	 1.728649e-01	 7.500000e-01
-9.297883e-01	 -3.680947e-01	 1.125000e+00
-9.297883e-01	 -3.680947e-01	 0
-9.297883e-01	 -3.680947e-01	 7.500000e-01
-9.297883e-01	 -3.680947e-01	 1.500000e+00
-9.297883e-01	 -3.680947e-01	 1.875000e+00
-9.297883e-01	 -3.680947e-01	 2.250000e+00
-9.297883e-01	 -3.680947e-01	 2.625000e+00
-9.297883e-01	 -3.680947e-01	 3.000000e+00
-9.297883e-01	 -3.680947e-01	 3.750000e-01
-9.297883e-01	 3.680947e-01	 3.750000e-01
-9.297883e-01	 3.680947e-01	 2.250000e+00
-9.297883e-01	 3.680947e-01	 2.625000e+00
-9.297883e-01	 3.680947e-01	 0
-9.297883e-01	 3.680947e-01	 7.500000e-01
-9.297883e-01	 3.680947e-01	 1.500000e+00
-9.297883e-01	 3.680947e-01	 1.875000e+00
-9.297883e-01	 3.680947e-01	 3.000000e+00
-9.297883e-01	 3.680947e-01	 1.125000e+00
-9.181659e-01	 3.634935e-01	 7.500000e-01
-9.181659e-01	 -3.634935e-01	 0
-9.181659e-01	 -3.634935e-01	 7.500000e-01
-9.181659e-01	 -3.634935e-01	 2.250000e+00
-9.181659e-01	 -3.634935e-01	 3
-9.181659e-01	 3.634935e-01	 0
-9.181659e-01	 3.634935e-01	 2.250000e+00
-9.181659e-01	 3.634935e-01	 3
-9.181659e-01	 -3.634935e-01	 1.500000e+00
-9.181659e-01	 3.634935e-01	 1.500000e+00
-9.065436e-01	 -3.588923e-01	 1.125000e+00
-9.065436e-01	 -3.588923e-01	 2.625000e+00
-9.065436e-01	 -3.588923e-01	 0
-9.065436e-01	 -3.588923e-01	 3.750000e-01
-9.065436e-01	 -3.588923e-01	 1.500000e+00
-9.065436e-01	 -3.588923e-01	 3
-9.065436e-01	 3.588923e-01	 2.625000e+00
-9.065436e-01	 3.588923e-01	 1.125000e+00
-9.065436e-01	 3.588923e-01	 0
-9.065436e-01	 3.588923e-01	 3.750000e-01
-9.065436e-01	 3.588923e-01	 3
-9.065436e-01	 -3.588923e-01	 7.500000e-01
-9.065436e-01	 -3.588923e-01	 1.875000e+00
-9.065436e-01	 3.588923e-01	 1.875000e+00
-9.065436e-01	 3.588923e-01	 1.500000e+00
-9.065436e-01	 -3.588923e-01	 2.250000e+00
-9.065436e-01	 3.588923e-01	 7.500000e-01
-9.065436e-01	 3.588923e-01	 2.250000e+00
-8.949212e-01	 3.542912e-01	 1.500000e+00
-8.949212e-01	 -3.542912e-01	 1.500000e+00
-8.949212e-01	 -3.542912e-01	 0
-8.949212e-01	 -3.542912e-01	 3.000000e+00
-8.949212e-01	 3.542912e-01	 0
-8.949212e-01	 3.542912e-01	 3.000000e+00
-8.949212e-01	 -3.542912e-01	 2.250000e+00
-8.949212e-01	 -3.542912e-01	 7.500000e-01
-8.949212e-01	 3.542912e-01	 2.250000e+00
-8.949212e-01	 3.542912e-01	 7.500000e-01
-8.832989e-01	 -3.496900e-01	 1.125000e+00
-8.832989e-01	 -3.496900e-01	 1.875000e+00
-8.832989e-01	 -3.496900e-01	 2.625000e+00
-8.832989e-01	 -3.496900e-01	 2.250000e+00
-8.832989e-01	 3.496900e-01	 1.125000e+00
-8.832989e-01	 -3.496900e-01	 0
-8.832989e-01	 -3.496900e-01	 3.000000e+00
-8.832989e-01	 -3.496900e-01	 3.750000e-01
-8.832989e-01	 -3.496900e-01	 7.500000e-01
-8.832989e-01	 3.496900e-01	 3.750000e-01
-8.832989e-01	 3.496900e-01	 7.500000e-01
-8.832989e-01	 3.496900e-01	 2.250000e+00
-8.832989e-01	 3.496900e-01	 2.625000e+00
-8.832989e-01	 3.496900e-01	 0
-8.832989e-01	 3.496900e-01	 1.875000e+00
-8.832989e-01	 3.496900e-01	 3.000000e+00
-8.832989e-01	 -3.496900e-01	 1.500000e+00
-8.832989e-01	 3.496900e-01	 1.500000e+00
-8.369955e-01	 -5.472098e-01	 0
-8.369955e-01	 -5.472098e-01	 7.500000e-01
-8.369955e-01	 -5.472098e-01	 1.500000e+00
-8.369955e-01	 -5.472098e-01	 2.250000e+00
-8.369955e-01	 -5.472098e-01	 3
-8.369955e-01	 5.472098e-01	 0
-8.369955e-01	 5.472098e-01	 7.500000e-01
-8.369955e-01	 5.472098e-01	 1.500000e+00
-8.369955e-01	 5.472098e-01	 2.250000e+00
-8.369955e-01	 5.472098e-01	 3
-8.160706e-01	 -5.335295e-01	 7.500000e-01
-8.160706e-01	 5.335295e-01	 7.500000e-01
-8.160706e-01	 -5.335295e-01	 1.500000e+00
-8.160706e-01	 -5.335295e-01	 2.250000e+00
-8.160706e-01	 5.335295e-01	 1.500000e+00
-8.160706e-01	 5.335295e-01	 2.250000e+00
-8.160706e-01	 -5.335295e-01	 0
-8.160706e-01	 -5.335295e-01	 3.000000e+00
-8.160706e-01	 5.335295e-01	 0
-8.160706e-01	 5.335295e-01	 3.000000e+00
-7.951457e-01	 -5.198493e-01	 7.500000e-01
-7.951457e-01	 5.198493e-01	 7.500000e-01
-7.951457e-01	 -5.198493e-01	 0
-7.951457e-01	 -5.198493e-01	 1.500000e+00
-7.951457e-01	 -5.198493e-01	 2.250000e+00
-7.951457e-01	 -5.198493e-01	 3
-7.951457e-01	 5.198493e-01	 0
-7.951457e-01	 5.198493e-01	 1.500000e+00
-7.951457e-01	 5.198493e-01	 2.250000e+00
-7.951457e-01	 5.198493e-01	 3
-7.071068e-01	 -7.071068e-01	 0
-7.071068e-01	 -7.071068e-01	 3.750000e-01
-7.071068e-01	 -7.071068e-01	 7.500000e-01
-7.071068e-01	 -7.071068e-01	 1.125000e+00
-7.071068e-01	 -7.071068e-01	 1.500000e+00
-7.071068e-01	 -7.071068e-01	 1.875000e+00
-7.071068e-01	 -7.071068e-01	 2.250000e+00
-7.071068e-01	 -7.071068e-01	 2.625000e+00
-7.071068e-01	 -7.071068e-01	 3.000000e+00
-7.071068e-01	 7.071068e-01	 0
-7.071068e-01	 7.071068e-01	 3.750000e-01
-7.071068e-01	 7.071068e-01	 7.500000e-01
-7.071068e-01	 7.071068e-01	 1.125000e+00
-7.071068e-01	 7.071068e-01	 1.500000e+00
-7.071068e-01	 7.071068e-01	 1.875000e+00
-7.071068e-01	 7.071068e-01	 2.250000e+00
-7.071068e-01	 7.071068e-01	 2.625000e+00
-7.071068e-01	 7.071068e-01	 3.000000e+00
-6.982679e-01	 -6.982679e-01	 7.500000e-01
-6.982679e-01	 6.982679e-01	 7.500000e-01
-6.982679e-01	 -6.982679e-01	 0
-6.982679e-01	 -6.982679e-01	 2.250000e+00
-6.982679e-01	 -6.982679e-01	 3.000000e+00
-6.982679e-01	 6.982679e-01	 0
-6.982679e-01	 6.982679e-01	 2.250000e+00
-6.982679e-01	 6.982679e-01	 3.000000e+00
-6.982679e-01	 -6.982679e-01	 1.500000e+00
-6.982679e-01	 6.982679e-01	 1.500000e+00
-6.894291e-01	 -6.894291e-01	 3.750000e-01
-6.894291e-01	 -6.894291e-01	 2.625000e+00
-6.894291e-01	 -6.894291e-01	 0
-6.894291e-01	 -6.894291e-01	 1.500000e+00
-6.894291e-01	 -6.894291e-01	 2.250000e+00
-6.894291e-01	 -6.894291e-01	 3.000000e+00
-6.894291e-01	 6.894291e-01	 3.750000e-01
-6.894291e-01	 6.894291e-01	 2.625000e+00
-6.894291e-01	 -6.894291e-01	 1.875000e+00
-6.894291e-01	 6.894291e-01	 1.875000e+00
-6.894291e-01	 -6.894291e-01	 7.500000e-01
-6.894291e-01	 -6.894291e-01	 1.125000e+00
-6.894291e-01	 6.894291e-01	 0
-6.894291e-01	 6.894291e-01	 1.500000e+00
-6.894291e-01	 6.894291e-01	 2.250000e+00
-6.894291e-01	 6.894291e-01	 3.000000e+00
-6.894291e-01	 6.894291e-01	 7.500000e-01
-6.894291e-01	 6.894291e-01	 1.125000e+00
-6.805903e-01	 6.805903e-01	 7.500000e-01
-6.805903e-01	 -6.805903e-01	 7.500000e-01
-6.805903e-01	 -6.805903e-01	 0
-6.805903e-01	 -6.805903e-01	 1.500000e+00
-6.805903e-01	 -6.805903e-01	 3.000000e+00
-6.805903e-01	 6.805903e-01	 0
-6.805903e-01	 6.805903e-01	 1.500000e+00
-6.805903e-01	 6.805903e-01	 3.000000e+00
-6.805903e-01	 6.805903e-01	 2.250000e+00
-6.805903e-01	 -6.805903e-01	 2.250000e+00
-6.717514e-01	 -6.717514e-01	 2.625000e+00
-6.717514e-01	 6.717514e-01	 2.625000e+00
-6.717514e-01	 -6.717514e-01	 0
-6.717514e-01	 -6.717514e-01	 3.750000e-01
-6.717514e-01	 -6.717514e-01	 7.500000e-01
-6.717514e-01	 -6.717514e-01	 1.125000e+00
-6.717514e-01	 -6.717514e-01	 1.875000e+00
-6.717514e-01	 -6.717514e-01	 3.000000e+00
-6.717514e-01	 -6.717514e-01	 2.250000e+00
-6.717514e-01	 6.717514e-01	 1.500000e+00
-6.717514e-01	 6.717514e-01	 0
-6.717514e-01	 6.717514e-01	 3.750000e-01
-6.717514e-01	 6.717514e-01	 7.500000e-01
-6.717514e-01	 6.717514e-01	 1.125000e+00
-6.717514e-01	 6.717514e-01	 1.875000e+00
-6.717514e-01	 6.717514e-01	 3.000000e+00
-6.717514e-01	 -6.717514e-01	 1.500000e+00
-6.717514e-01	 6.717514e-01	 2.250000e+00
-5.472098e-01	 -8.369955e-01	 0
-5.472098e-01	 -8.369955e-01	 7.500000e-01
-5.472098e-01	 -8.369955e-01	 1.500000e+00
-5.472098e-01	 -8.369955e-01	 2.250000e+00
-5.472098e-01	 -8.369955e-01	 3
-5.472098e-01	 8.369955e-01	 0
-5.472098e-01	 8.369955e-01	 7.500000e-01
-5.472098e-01	 8.369955e-01	 1.500000e+00
-5.472098e-01	 8.369955e-01	 2.250000e+00
-5.472098e-01	 8.369955e-01	 3
-5.335295e-01	 -8.160706e-01	 1.500000e+00
-5.335295e-01	 -8.160706e-01	 2.250000e+00
-5.335295e-01	 8.160706e-01	 0
-5.335295e-01	 8.160706e-01	 3.000000e+00
[...]
POINT_DATA 832
VECTORS displacement float
0	 0	 2.865396e-11
1.312879e-10	 -5.358172e-18	 2.624177e-11
2.396686e-10	 -1.412309e-17	 2.026141e-11
3.169570e-10	 -2.881916e-17	 1.086970e-11
3.389426e-10	 -4.366895e-17	 2.995973e-18
3.169570e-10	 -5.124658e-17	 -1.086969e-11
2.396686e-10	 -4.760828e-17	 -2.026140e-11
1.312879e-10	 -2.778485e-17	 -2.624175e-11
0	 0	 -2.865394e-11
0	 0	 2.408772e-11
3.399257e-10	 -4.585359e-17	 3.641115e-18
0	 0	 -2.408771e-11
2.403637e-10	 -4.871890e-17	 -1.703258e-11
2.403638e-10	 -1.609720e-17	 1.703259e-11
1.829301e-10	 7.785049e-12	 1.570615e-11
0	 0	 2.221185e-11
2.587022e-10	 1.100970e-11	 -5.621863e-18
0	 0	 -2.221184e-11
1.829301e-10	 -7.785115e-12	 -1.570615e-11
0	 0	 2.221188e-11
2.587022e-10	 -1.100979e-11	 1.140430e-17
0	 0	 -2.221185e-11
1.829301e-10	 -7.785085e-12	 1.570617e-11
1.829300e-10	 7.785022e-12	 -1.570615e-11
2.407231e-10	 -1.804001e-17	 1.383125e-11
3.180171e-10	 -3.293635e-17	 7.514318e-12
0	 0	 1.956034e-11
1.317270e-10	 -7.024265e-18	 1.814117e-11
3.180171e-10	 -5.548638e-17	 -7.514309e-12
1.317270e-10	 -2.957311e-17	 -1.814115e-11
0	 0	 -1.956032e-11
3.404338e-10	 -4.806766e-17	 4.293069e-18
2.407230e-10	 -4.990241e-17	 -1.383124e-11
3.407911e-10	 -5.024551e-17	 4.946011e-18
2.409757e-10	 -5.103278e-17	 -1.062174e-11
0	 0	 1.502142e-11
2.409757e-10	 -1.998485e-17	 1.062175e-11
0	 0	 -1.502141e-11
0	 0	 1.540891e-11
0	 0	 -1.540890e-11
2.629351e-10	 -9.941021e-12	 -3.637856e-18
0	 0	 1.540893e-11
0	 0	 -1.540890e-11
2.629352e-10	 9.940919e-12	 1.197148e-17
1.859233e-10	 7.029306e-12	 1.089576e-11
1.859232e-10	 -7.029347e-12	 1.089574e-11
1.859232e-10	 -7.029379e-12	 -1.089574e-11
1.859232e-10	 7.029276e-12	 -1.089574e-11
0	 0	 1.044390e-11
1.316366e-10	 -8.673676e-18	 1.001543e-11
3.177988e-10	 -3.701397e-17	 4.148527e-12
3.405802e-10	 -5.241763e-17	 5.594994e-18
3.177988e-10	 -5.968749e-17	 -4.148516e-12
2.408266e-10	 -5.214179e-17	 -7.384944e-12
1.316366e-10	 -3.134563e-17	 -1.001541e-11
0	 0	 -1.044389e-11
2.408266e-10	 -2.194280e-17	 7.384957e-12
2.659432e-10	 -3.132585e-11	 -1.642140e-18
0	 0	 8.621507e-12
0	 0	 -8.621503e-12
1.880503e-10	 2.215062e-11	 -6.096319e-12
0	 0	 8.621528e-12
2.659433e-10	 3.132574e-11	 1.253636e-17
0	 0	 -8.621502e-12
1.880503e-10	 -2.215070e-11	 6.096325e-12
1.880502e-10	 -2.215074e-11	 -6.096324e-12
1.880503e-10	 2.215066e-11	 6.096344e-12
2.882768e-11	 -3.918039e-11	 5.140944e-13
0	 0	 1.422308e-12
2.204522e-11	 -3.017602e-11	 1.005714e-12
3.117657e-11	 -4.267537e-11	 -1.659715e-17
2.882760e-11	 -3.918042e-11	 -5.141200e-13
2.204511e-11	 -3.017606e-11	 -1.005727e-12
1.194076e-11	 -1.622907e-11	 -1.241164e-12
0	 0	 -1.422299e-12
1.194084e-11	 -1.622904e-11	 1.241165e-12
1.194086e-11	 1.622902e-11	 1.241208e-12
2.204528e-11	 3.017594e-11	 -1.005721e-12
1.194086e-11	 1.622900e-11	 -1.241172e-12
0	 0	 1.422348e-12
2.204528e-11	 3.017598e-11	 1.005759e-12
3.117673e-11	 4.267525e-11	 2.178054e-17
2.882779e-11	 3.918029e-11	 -5.140974e-13
0	 0	 -1.422315e-12
2.882779e-11	 3.918031e-11	 5.141382e-13
2.685816e-11	 4.242717e-11	 8.718228e-13
0	 0	 1.232894e-12
2.685810e-11	 -4.242721e-11	 8.717799e-13
2.685800e-11	 -4.242726e-11	 -8.717920e-13
0	 0	 -1.232889e-12
0	 0	 1.232934e-12
2.685815e-11	 4.242713e-11	 -8.717846e-13
0	 0	 -1.232900e-12
3.798301e-11	 -6.000117e-11	 -1.464091e-17
3.798317e-11	 6.000105e-11	 2.133685e-17
4.129980e-11	 -7.086703e-11	 3.868199e-13
1.710688e-11	 -2.935411e-11	 -9.338934e-13
0	 0	 1.041412e-12
1.710696e-11	 -2.935407e-11	 9.338909e-13
4.474707e-11	 -7.717115e-11	 -1.268744e-17
0	 0	 -1.041411e-12
1.710698e-11	 2.935403e-11	 -9.338955e-13
4.129991e-11	 7.086694e-11	 3.868600e-13
0	 0	 1.041451e-12
1.710698e-11	 2.935406e-11	 9.339308e-13
0	 0	 -1.041417e-12
3.164100e-11	 -5.456822e-11	 7.363830e-13
4.129972e-11	 -7.086707e-11	 -3.868417e-13
4.129991e-11	 7.086691e-11	 -3.868189e-13
4.474722e-11	 7.717103e-11	 2.088106e-17
3.164090e-11	 -5.456827e-11	 -7.363951e-13
3.164107e-11	 5.456818e-11	 7.364241e-13
3.164106e-11	 5.456814e-11	 -7.363859e-13
5.146012e-11	 9.417902e-11	 2.042476e-17
5.145996e-11	 -9.417915e-11	 -1.073206e-17
0	 0	 8.463572e-13
0	 0	 -8.463599e-13
0	 0	 8.463962e-13
0	 0	 -8.463606e-13
3.638764e-11	 -6.659474e-11	 -5.984719e-13
3.638774e-11	 -6.659469e-11	 5.984598e-13
3.638779e-11	 6.659460e-11	 -5.984608e-13
3.638780e-11	 6.659464e-11	 5.984990e-13
5.371732e-11	 -1.022763e-10	 2.560416e-13
5.371724e-11	 -1.022764e-10	 -2.560595e-13
2.225039e-11	 -4.236427e-11	 -6.181638e-13
4.119100e-11	 -7.872876e-11	 -4.608458e-13
5.371742e-11	 1.022762e-10	 2.560780e-13
0	 0	 6.517225e-13
0	 0	 -6.517291e-13
2.225046e-11	 -4.236422e-11	 6.181575e-13
4.119110e-11	 -7.872870e-11	 4.608337e-13
2.225049e-11	 4.236421e-11	 6.181947e-13
4.119116e-11	 7.872865e-11	 4.608710e-13
4.119115e-11	 7.872861e-11	 -4.608328e-13
2.225048e-11	 4.236417e-11	 -6.181596e-13
0	 0	 6.517612e-13
5.371742e-11	 1.022762e-10	 -2.560367e-13
0	 0	 -6.517247e-13
5.825294e-11	 -1.113392e-10	 -8.768318e-18
5.825310e-11	 1.113391e-10	 1.997808e-17
0	 0	 -2.032097e-11
-1.233539e-10	 -1.144774e-10	 -1.436911e-11
-1.744489e-10	 -1.618955e-10	 -2.570435e-17
-1.233541e-10	 -1.144774e-10	 1.436908e-11
0	 0	 2.032097e-11
0	 0	 -2.032091e-11
-1.233539e-10	 1.144773e-10	 -1.436904e-11
-1.744487e-10	 1.618953e-10	 3.318019e-17
-1.233538e-10	 1.144773e-10	 1.436909e-11
0	 0	 2.032095e-11
-1.155740e-10	 -1.266678e-10	 -9.973085e-12
-1.155739e-10	 1.266678e-10	 -9.973028e-12
-1.634464e-10	 -1.791354e-10	 -2.071172e-17
-1.155741e-10	 -1.266679e-10	 9.973061e-12
-1.634462e-10	 1.791352e-10	 3.038807e-17
-1.155739e-10	 1.266677e-10	 9.973078e-12
0	 0	 -1.410406e-11
0	 0	 1.410405e-11
0	 0	 -1.410401e-11
0	 0	 1.410405e-11
-1.070262e-10	 -1.385015e-10	 -5.583040e-12
-1.070262e-10	 1.385014e-10	 -5.582988e-12
0	 0	 -7.895602e-12
-1.513581e-10	 -1.958707e-10	 -1.571735e-17
-1.070264e-10	 -1.385016e-10	 5.583016e-12
0	 0	 7.895585e-12
0	 0	 -7.895550e-12
-1.513578e-10	 1.958706e-10	 2.758585e-17
-1.070261e-10	 1.385014e-10	 5.583038e-12
0	 0	 7.895596e-12
0	 0	 -2.785406e-11
-8.870037e-11	 -8.870037e-11	 -2.543313e-11
-1.616765e-10	 -1.616765e-10	 -1.969580e-11
-2.141417e-10	 -2.141417e-10	 -1.053477e-11
-2.286452e-10	 -2.286452e-10	 -2.660531e-17
-2.141418e-10	 -2.141417e-10	 1.053472e-11
-1.616766e-10	 -1.616766e-10	 1.969577e-11
-8.870045e-11	 -8.870041e-11	 2.543311e-11
0	 0	 2.785404e-11
0	 0	 -2.785400e-11
-8.870036e-11	 8.870036e-11	 -2.543307e-11
-1.616765e-10	 1.616765e-10	 -1.969573e-11
-2.141415e-10	 2.141416e-10	 -1.053469e-11
-2.286450e-10	 2.286450e-10	 4.432142e-17
-2.141414e-10	 2.141415e-10	 1.053477e-11
-1.616763e-10	 1.616764e-10	 1.969579e-11
-8.870027e-11	 8.870028e-11	 2.543311e-11
0	 0	 2.785403e-11
-1.621306e-10	 -1.621306e-10	 -1.659769e-11
-1.621306e-10	 1.621306e-10	 -1.659762e-11
0	 0	 -2.347267e-11
-1.621308e-10	 -1.621307e-10	 1.659766e-11
0	 0	 2.347264e-11
0	 0	 -2.347261e-11
-1.621305e-10	 1.621305e-10	 1.659768e-11
0	 0	 2.347265e-11
-2.292874e-10	 -2.292874e-10	 -2.485966e-17
-2.292872e-10	 2.292872e-10	 4.167363e-17
-8.899116e-11	 -8.899117e-11	 -1.770526e-11
-8.899125e-11	 -8.899121e-11	 1.770523e-11
0	 0	 -1.912214e-11
-2.296537e-10	 -2.296537e-10	 -2.313536e-17
-1.623898e-10	 -1.623897e-10	 1.352137e-11
0	 0	 1.912212e-11
-8.899115e-11	 8.899117e-11	 -1.770520e-11
-8.899106e-11	 8.899107e-11	 1.770525e-11
-2.148438e-10	 -2.148438e-10	 7.333732e-12
-2.148435e-10	 2.148435e-10	 7.333780e-12
-1.623896e-10	 -1.623896e-10	 -1.352141e-11
-2.148437e-10	 -2.148437e-10	 -7.333775e-12
0	 0	 -1.912208e-11
-2.296534e-10	 2.296535e-10	 3.903985e-17
-1.623894e-10	 1.623895e-10	 1.352140e-11
0	 0	 1.912213e-11
-1.623896e-10	 1.623896e-10	 -1.352134e-11
-2.148436e-10	 2.148436e-10	 -7.333707e-12
-1.626055e-10	 1.626056e-10	 -1.044100e-11
-1.626056e-10	 -1.626056e-10	 -1.044107e-11
0	 0	 -1.476589e-11
-2.299591e-10	 -2.299591e-10	 -2.141044e-17
0	 0	 1.476586e-11
0	 0	 -1.476583e-11
-2.299589e-10	 2.299589e-10	 3.640369e-17
0	 0	 1.476588e-11
-1.626054e-10	 1.626055e-10	 1.044107e-11
-1.626057e-10	 -1.626057e-10	 1.044103e-11
-8.898730e-11	 -8.898726e-11	 9.958113e-12
-8.898711e-11	 8.898712e-11	 9.958142e-12
0	 0	 -1.037566e-11
-8.898720e-11	 -8.898722e-11	 -9.958146e-12
-1.625824e-10	 -1.625824e-10	 -7.336703e-12
-2.148342e-10	 -2.148342e-10	 -4.124811e-12
-2.148343e-10	 -2.148342e-10	 4.124773e-12
0	 0	 1.037562e-11
-1.625825e-10	 -1.625824e-10	 7.336667e-12
-2.299260e-10	 2.299261e-10	 3.374635e-17
0	 0	 -1.037560e-11
-8.898719e-11	 8.898722e-11	 -9.958086e-12
-1.625823e-10	 1.625823e-10	 -7.336643e-12
-2.148340e-10	 2.148341e-10	 -4.124752e-12
-2.148339e-10	 2.148340e-10	 4.124819e-12
0	 0	 1.037565e-11
-2.299263e-10	 -2.299262e-10	 -1.966048e-17
-1.625822e-10	 1.625822e-10	 7.336704e-12
0	 0	 -2.032099e-11
-1.144775e-10	 -1.233540e-10	 -1.436911e-11
-1.618956e-10	 -1.744489e-10	 -2.177111e-17
-1.144775e-10	 -1.233540e-10	 1.436907e-11
0	 0	 2.032094e-11
0	 0	 -2.032093e-11
-1.144774e-10	 1.233540e-10	 -1.436905e-11
-1.618954e-10	 1.744488e-10	 5.000364e-17
-1.144773e-10	 1.233539e-10	 1.436911e-11
0	 0	 2.032097e-11
-1.791355e-10	 -1.634464e-10	 -2.187442e-17
-1.266680e-10	 -1.155741e-10	 9.973047e-12
0	 0	 -1.410401e-11
0	 0	 1.410406e-11
-1.791353e-10	 1.634463e-10	 4.422724e-17
-1.266677e-10	 1.155739e-10	 9.973097e-12
-1.266679e-10	 -1.155741e-10	 -9.973092e-12
0	 0	 -1.410407e-11
0	 0	 1.410403e-11
-1.266679e-10	 1.155741e-10	 -9.973027e-12
-1.385015e-10	 1.070263e-10	 -5.582984e-12
-1.385016e-10	 -1.070264e-10	 -5.583045e-12
0	 0	 -7.895609e-12
-1.958708e-10	 -1.513581e-10	 -2.198169e-17
-1.385016e-10	 -1.070263e-10	 5.583001e-12
0	 0	 7.895564e-12
0	 0	 -7.895550e-12
-1.958706e-10	 1.513580e-10	 3.845274e-17
-1.385014e-10	 1.070262e-10	 5.583054e-12
0	 0	 7.895613e-12
-3.918050e-11	 2.882756e-11	 5.140950e-13
-3.918044e-11	 -2.882754e-11	 5.141496e-13
0	 0	 1.422279e-12
-3.017612e-11	 2.204507e-11	 1.005705e-12
-4.267546e-11	 3.117655e-11	 -1.303757e-17
-3.918048e-11	 2.882768e-11	 -5.141299e-13
0	 0	 -1.422356e-12
0	 0	 1.422337e-12
-3.017609e-11	 -2.204507e-11	 1.005759e-12
-4.267537e-11	 -3.117649e-11	 4.331683e-17
-3.918038e-11	 -2.882759e-11	 -5.140658e-13
-3.017601e-11	 -2.204514e-11	 -1.005683e-12
-1.622903e-11	 -1.194079e-11	 -1.241132e-12
0	 0	 -1.422272e-12
-1.622910e-11	 1.194073e-11	 1.241143e-12
-3.017609e-11	 2.204523e-11	 -1.005756e-12
-1.622908e-11	 1.194085e-11	 -1.241211e-12
-1.622909e-11	 -1.194074e-11	 1.241200e-12
-6.000127e-11	 3.798299e-11	 -1.549682e-17
-6.000116e-11	 -3.798293e-11	 4.219249e-17
-4.242731e-11	 2.685795e-11	 8.717705e-13
0	 0	 1.232870e-12
-4.242729e-11	 2.685812e-11	 -8.718218e-13
0	 0	 -1.232942e-12
0	 0	 1.232927e-12
-4.242728e-11	 -2.685795e-11	 8.718255e-13
-4.242718e-11	 -2.685802e-11	 -8.717497e-13
0	 0	 -1.232860e-12
-5.456831e-11	 3.164103e-11	 -7.364254e-13
-5.456818e-11	 -3.164092e-11	 -7.363535e-13
-7.086707e-11	 -4.129966e-11	 3.868722e-13
-2.935405e-11	 -1.710691e-11	 -9.338595e-13
0	 0	 1.041393e-12
-2.935413e-11	 1.710685e-11	 9.338752e-13
0	 0	 -1.041460e-12
-7.717126e-11	 4.474705e-11	 -1.794263e-17
0	 0	 1.041450e-12
-2.935412e-11	 -1.710686e-11	 9.339311e-13
-7.717114e-11	 -4.474697e-11	 4.108948e-17
0	 0	 -1.041380e-12
-7.086714e-11	 4.129968e-11	 3.868163e-13
-7.086714e-11	 4.129981e-11	 -3.868569e-13
-5.456832e-11	 3.164086e-11	 7.363741e-13
-5.456829e-11	 -3.164086e-11	 7.364294e-13
-7.086700e-11	 -4.129970e-11	 -3.867921e-13
-2.935413e-11	 1.710698e-11	 -9.339372e-13
-9.417926e-11	 5.145995e-11	 -2.039389e-17
-6.659479e-11	 3.638777e-11	 -5.985027e-13
-6.659464e-11	 -3.638765e-11	 -5.984311e-13
0	 0	 8.463988e-13
0	 0	 -8.463271e-13
-9.417912e-11	 -5.145987e-11	 3.998793e-17
0	 0	 8.463434e-13
0	 0	 -8.464052e-13
-6.659479e-11	 3.638759e-11	 5.984514e-13
-6.659475e-11	 -3.638759e-11	 5.985069e-13
-1.022764e-10	 5.371720e-11	 2.560338e-13
0	 0	 6.517138e-13
-1.022764e-10	 5.371733e-11	 -2.560800e-13
0	 0	 -6.517707e-13
-1.113394e-10	 5.825293e-11	 -2.286598e-17
0	 0	 6.517683e-13
0	 0	 -6.516944e-13
-1.022763e-10	 -5.371717e-11	 2.560908e-13
-1.022763e-10	 -5.371721e-11	 -2.560144e-13
-4.236419e-11	 -2.225041e-11	 -6.181281e-13
-4.236428e-11	 2.225035e-11	 6.181479e-13
-7.872880e-11	 4.119095e-11	 4.608257e-13
-7.872882e-11	 4.119113e-11	 -4.608770e-13
-4.236429e-11	 2.225049e-11	 -6.182042e-13
-1.113392e-10	 -5.825284e-11	 3.886430e-17
-4.236427e-11	 -2.225037e-11	 6.182034e-13
-7.872864e-11	 -4.119101e-11	 -4.608057e-13
-7.872876e-11	 -4.119095e-11	 4.608816e-13
7.784979e-12	 1.829300e-10	 1.570614e-11
7.784994e-12	 -1.829299e-10	 1.570618e-11
0	 0	 2.221183e-11
1.100965e-11	 2.587023e-10	 -7.134996e-18
0	 0	 -2.221193e-11
0	 0	 2.221188e-11
1.100966e-11	 -2.587019e-10	 3.208424e-17
0	 0	 -2.221179e-11
7.785025e-12	 1.829303e-10	 -1.570620e-11
7.785022e-12	 -1.829298e-10	 -1.570610e-11
-7.029432e-12	 1.859231e-10	 1.089573e-11
0	 0	 1.540889e-11
0	 0	 -1.540897e-11
-7.029408e-12	 -1.859231e-10	 1.089578e-11
-7.029357e-12	 -1.859230e-10	 -1.089570e-11
0	 0	 1.540894e-11
0	 0	 -1.540885e-11
-7.029391e-12	 1.859234e-10	 -1.089579e-11
-9.941048e-12	 -2.629349e-10	 3.480843e-17
-9.941089e-12	 2.629352e-10	 -1.498181e-17
-3.132586e-11	 -2.659430e-10	 3.753158e-17
0	 0	 8.621498e-12
-3.132594e-11	 2.659433e-10	 -2.282763e-17
0	 0	 -8.621563e-12
0	 0	 8.621547e-12
0	 0	 -8.621464e-12
-2.215076e-11	 1.880505e-10	 -6.096370e-12
-2.215080e-11	 1.880502e-10	 6.096315e-12
-2.215077e-11	 -1.880501e-10	 6.096365e-12
-2.215069e-11	 -1.880500e-10	 -6.096285e-12
0	 0	 2.865395e-11
-3.533717e-17	 1.312879e-10	 2.624176e-11
-6.172340e-17	 2.396687e-10	 2.026141e-11
-7.287442e-17	 3.169571e-10	 1.086969e-11
-6.986177e-17	 3.389429e-10	 -1.137444e-17
-5.525009e-17	 3.169573e-10	 -1.086973e-11
-3.705794e-17	 2.396689e-10	 -2.026147e-11
-1.771527e-17	 1.312881e-10	 -2.624184e-11
0	 0	 -2.865404e-11
0	 0	 2.408772e-11
-8.618720e-17	 3.399259e-10	 -1.469903e-17
0	 0	 -2.408780e-11
-4.484534e-17	 2.403640e-10	 -1.703265e-11
-7.702649e-17	 2.403638e-10	 1.703259e-11
-9.219176e-17	 2.407231e-10	 1.383124e-11
-1.079045e-16	 3.180173e-10	 7.514308e-12
0	 0	 1.956033e-11
-5.275092e-17	 1.317270e-10	 1.814116e-11
-8.036406e-17	 3.180175e-10	 -7.514350e-12
-2.521336e-17	 1.317272e-10	 -1.814123e-11
0	 0	 -1.956041e-11
-1.023999e-16	 3.404341e-10	 -1.799385e-17
-5.261099e-17	 2.407234e-10	 -1.383130e-11
-1.184673e-16	 3.407914e-10	 -2.129539e-17
-6.029042e-17	 2.409760e-10	 -1.062180e-11
0	 0	 1.502142e-11
-1.072380e-16	 2.409758e-10	 1.062174e-11
0	 0	 -1.502149e-11
0	 0	 1.044390e-11
-7.004944e-17	 1.316366e-10	 1.001542e-11
-1.426861e-16	 3.177990e-10	 4.148509e-12
-1.346711e-16	 3.405805e-10	 -2.463335e-17
-1.052718e-16	 3.177992e-10	 -4.148560e-12
-6.801606e-17	 2.408269e-10	 -7.385002e-12
-3.263833e-17	 1.316368e-10	 -1.001548e-11
0	 0	 -1.044396e-11
-1.224308e-16	 2.408267e-10	 7.384945e-12
-9.300934e-17	 -2.408265e-10	 7.384991e-12
0	 0	 1.044394e-11
-5.450420e-17	 -1.316366e-10	 1.001546e-11
-1.033539e-16	 -3.177987e-10	 4.148559e-12
-9.044641e-17	 -3.405800e-10	 3.633550e-17
-6.334048e-17	 -3.177985e-10	 -4.148485e-12
-3.484243e-17	 -2.408263e-10	 -7.384911e-12
-1.450342e-17	 -1.316364e-10	 -1.001537e-11
0	 0	 -1.044385e-11
0	 0	 1.502146e-11
-8.513566e-17	 -2.409757e-10	 1.062178e-11
0	 0	 -1.502137e-11
-8.549510e-17	 -3.407909e-10	 3.289921e-17
-3.572221e-17	 -2.409754e-10	 -1.062170e-11
-8.056207e-17	 -3.404336e-10	 2.950152e-17
-3.655504e-17	 -2.407228e-10	 -1.383120e-11
0	 0	 1.956038e-11
-4.488465e-17	 -1.317270e-10	 1.814120e-11
-5.993305e-17	 -3.180168e-10	 -7.514279e-12
-1.649845e-17	 -1.317268e-10	 -1.814111e-11
0	 0	 -1.956028e-11
-7.733463e-17	 -2.407230e-10	 1.383128e-11
-8.832909e-17	 -3.180170e-10	 7.514344e-12
-6.947694e-17	 -2.403637e-10	 1.703262e-11
-3.737575e-17	 -2.403634e-10	 -1.703254e-11
0	 0	 2.408776e-11
-7.558032e-17	 -3.399254e-10	 2.611064e-17
0	 0	 -2.408765e-11
0	 0	 2.865400e-11
-3.521128e-17	 -1.312879e-10	 2.624180e-11
-6.155235e-17	 -2.396685e-10	 2.026143e-11
-7.321226e-17	 -3.169568e-10	 1.086972e-11
-7.059877e-17	 -3.389423e-10	 2.268754e-17
-5.648727e-17	 -3.169567e-10	 -1.086966e-11
-3.826372e-17	 -2.396683e-10	 -2.026135e-11
-1.849338e-17	 -1.312877e-10	 -2.624169e-11
0	 0	 -2.865388e-11
2.215055e-11	 1.880505e-10	 6.096329e-12
2.215062e-11	 1.880506e-10	 -6.096385e-12
2.215058e-11	 -1.880503e-10	 6.096375e-12
2.215062e-11	 -1.880500e-10	 -6.096296e-12
0	 0	 8.621520e-12
0	 0	 -8.621581e-12
0	 0	 8.621565e-12
3.132568e-11	 -2.659431e-10	 3.435418e-17
0	 0	 -8.621476e-12
3.132566e-11	 2.659437e-10	 -2.563834e-17
9.940877e-12	 -2.629350e-10	 2.603474e-17
9.940857e-12	 2.629356e-10	 -2.263197e-17
7.029283e-12	 -1.859230e-10	 -1.089571e-11
0	 0	 1.540893e-11
0	 0	 -1.540900e-11
7.029223e-12	 1.859235e-10	 1.089575e-11
7.029271e-12	 1.859236e-10	 -1.089581e-11
0	 0	 1.540897e-11
0	 0	 -1.540886e-11
7.029240e-12	 -1.859233e-10	 1.089579e-11
-7.785123e-12	 1.829305e-10	 -1.570623e-11
-7.785094e-12	 -1.829298e-10	 -1.570612e-11
0	 0	 2.221189e-11
-1.100985e-11	 2.587027e-10	 -1.962522e-17
0	 0	 -2.221196e-11
0	 0	 2.221192e-11
-1.100982e-11	 -2.587021e-10	 1.771215e-17
0	 0	 -2.221180e-11
-7.785151e-12	 1.829303e-10	 1.570617e-11
-7.785141e-12	 -1.829301e-10	 1.570620e-11
7.872854e-11	 4.119148e-11	 4.608475e-13
7.872865e-11	 4.119144e-11	 -4.608998e-13
4.236413e-11	 2.225066e-11	 6.181801e-13
1.113390e-10	 5.825352e-11	 -2.682968e-17
4.236415e-11	 -2.225055e-11	 6.182316e-13
7.872856e-11	 -4.119125e-11	 4.609004e-13
7.872854e-11	 -4.119106e-11	 -4.608256e-13
4.236414e-11	 -2.225041e-11	 -6.181518e-13
1.022761e-10	 5.371783e-11	 2.560432e-13
1.022762e-10	 5.371781e-11	 -2.560956e-13
4.236421e-11	 2.225064e-11	 -6.182323e-13
0	 0	 6.517482e-13
0	 0	 -6.517992e-13
1.113390e-10	 -5.825309e-11	 3.457646e-17
0	 0	 6.517989e-13
1.022761e-10	 -5.371735e-11	 -2.560284e-13
0	 0	 -6.517184e-13
1.022761e-10	 -5.371749e-11	 2.560983e-13
6.659453e-11	 3.638812e-11	 5.984794e-13
6.659455e-11	 -3.638789e-11	 5.985287e-13
0	 0	 8.464374e-13
0	 0	 -8.463517e-13
9.417896e-11	 5.146054e-11	 -2.762096e-17
0	 0	 8.463900e-13
0	 0	 -8.464395e-13
6.659463e-11	 3.638808e-11	 -5.985318e-13
6.659454e-11	 -3.638770e-11	 -5.984539e-13
9.417891e-11	 -5.146012e-11	 3.197536e-17
2.935401e-11	 -1.710692e-11	 -9.338857e-13
5.456807e-11	 3.164138e-11	 7.364085e-13
7.086690e-11	 4.130029e-11	 -3.868832e-13
5.456809e-11	 -3.164116e-11	 7.364542e-13
7.086685e-11	 -4.129984e-11	 -3.868140e-13
7.086684e-11	 -4.129998e-11	 3.868778e-13
0	 0	 1.041452e-12
2.935399e-11	 1.710716e-11	 9.339273e-13
7.717097e-11	 4.474764e-11	 -2.839434e-17
0	 0	 -1.041500e-12
7.717093e-11	 -4.474723e-11	 2.939803e-17
0	 0	 1.041496e-12
2.935400e-11	 -1.710705e-11	 9.339715e-13
0	 0	 -1.041405e-12
7.086684e-11	 4.130031e-11	 3.868280e-13
2.935405e-11	 1.710713e-11	 -9.339767e-13
5.456816e-11	 3.164134e-11	 -7.364608e-13
5.456809e-11	 -3.164098e-11	 -7.363794e-13
0	 0	 1.232941e-12
4.242706e-11	 2.685848e-11	 8.718112e-13
4.242714e-11	 2.685843e-11	 -8.718635e-13
0	 0	 -1.232987e-12
0	 0	 1.232982e-12
4.242710e-11	 -2.685808e-11	 -8.717785e-13
0	 0	 -1.232886e-12
4.242708e-11	 -2.685825e-11	 8.718533e-13
6.000098e-11	 3.798359e-11	 -2.916928e-17
6.000097e-11	 -3.798318e-11	 2.682619e-17
1.622896e-11	 1.194104e-11	 1.241216e-12
1.622897e-11	 -1.194093e-11	 1.241252e-12
3.017593e-11	 -2.204520e-11	 -1.005715e-12
1.622900e-11	 -1.194080e-11	 -1.241160e-12
0	 0	 1.422362e-12
3.017587e-11	 2.204560e-11	 1.005752e-12
4.267518e-11	 3.117715e-11	 -2.996187e-17
3.918026e-11	 2.882816e-11	 -5.141670e-13
3.017595e-11	 2.204555e-11	 -1.005804e-12
1.622901e-11	 1.194100e-11	 -1.241262e-12
0	 0	 -1.422407e-12
0	 0	 1.422400e-12
3.017590e-11	 -2.204538e-11	 1.005790e-12
4.267518e-11	 -3.117675e-11	 2.423776e-17
3.918025e-11	 -2.882774e-11	 -5.140958e-13
0	 0	 -1.422299e-12
3.918021e-11	 2.882819e-11	 5.141089e-13
3.918022e-11	 -2.882786e-11	 5.141533e-13
0	 0	 -7.895574e-12
1.958706e-10	 -1.513575e-10	 -2.632007e-17
1.385015e-10	 -1.070260e-10	 5.582977e-12
0	 0	 7.895534e-12
0	 0	 -7.895513e-12