# vtk DataFile Version 3.0
Unstructured Grid Example
ASCII
DATASET UNSTRUCTURED_GRID
POINTS 832 float
-1	 0	 0
-1	 0	 3.750000e-01
-1	 0	 7.500000e-01
-1	 0	 1.125000e+00
-1	 0	 1.500000e+00
-1	 0	 1.875000e+00
-1	 0	 2.250000e+00
-1	 0	 2.625000e+00
-1	 0	 3
-9.875000e-01	 0	 0
-9.875000e-01	 0	 1.500000e+00
-9.875000e-01	 0	 3
-9.875000e-01	 0	 2.250000e+00
-9.875000e-01	 0	 7.500000e-01
-9.833054e-01	 -1.819631e-01	 7.500000e-01
-9.833054e-01	 -1.819631e-01	 0
-9.833054e-01	 -1.819631e-01	 1.500000e+00
-9.833054e-01	 -1.819631e-01	 3.000000e+00
-9.833054e-01	 1.819631e-01	 2.250000e+00
-9.833054e-01	 1.819631e-01	 0
-9.833054e-01	 1.819631e-01	 1.500000e+00
-9.833054e-01	 1.819631e-01	 3.000000e+00
-9.833054e-01	 1.819631e-01	 7.500000e-01
-9.833054e-01	 -1.819631e-01	 2.250000e+00
-9.750000e-01	 0	 7.500000e-01
-9.750000e-01	 0	 1.125000e+00
-9.750000e-01	 0	 0
-9.750000e-01	 0	 3.750000e-01
-9.750000e-01	 0	 1.875000e+00
-9.750000e-01	 0	 2.625000e+00
-9.750000e-01	 0	 3
-9.750000e-01	 0	 1.500000e+00
-9.750000e-01	 0	 2.250000e+00
-9.625000e-01	 0	 1.500000e+00
-9.625000e-01	 0	 2.250000e+00
-9.625000e-01	 0	 0
-9.625000e-01	 0	 7.500000e-01
-9.625000e-01	 0	 3
-9.587227e-01	 -1.774140e-01	 0
-9.587227e-01	 -1.774140e-01	 3.000000e+00
-9.587227e-01	 -1.774140e-01	 1.500000e+00
-9.587227e-01	 1.774140e-01	 0
-9.587227e-01	 1.774140e-01	 3.000000e+00
-9.587227e-01	 1.774140e-01	 1.500000e+00
-9.587227e-01	 1.774140e-01	 7.500000e-01
-9.587227e-01	 -1.774140e-01	 7.500000e-01
-9.587227e-01	 -1.774140e-01	 2.250000e+00
-9.587227e-01	 1.774140e-01	 2.250000e+00
-9.500000e-01	 0	 0
-9.500000e-01	 0	 3.750000e-01
-9.500000e-01	 0	 1.125000e+00
-9.500000e-01	 0	 1.500000e+00
-9.500000e-01	 0	 1.875000e+00
-9.500000e-01	 0	 2.250000e+00
-9.500000e-01	 0	 2.625000e+00
-9.500000e-01	 0	 3
-9.500000e-01	 0	 7.500000e-01
-9.341401e-01	 -1.728649e-01	 1.500000e+00
-9.341401e-01	 -1.728649e-01	 0
-9.341401e-01	 -1.728649e-01	 3.000000e+00
-9.341401e-01	 1.728649e-01	 2.250000e+00
-9.341401e-01	 1.728649e-01	 0
-9.341401e-01	 1.728649e-01	 1.500000e+00
-9.341401e-01	 1.728649e-01	 3.000000e+00
-9.341401e-01	 -1.728649e-01	 7.500000e-01
-9.341401e-01	 -1.728649e-01	 2.250000e+00
-9.341401e-01	 1.728649e-01	 7.500000e-01
-9.297883e-01	 -3.680947e-01	 1.125000e+00
-9.297883e-01	 -3.680947e-01	 0
-9.297883e-01	 -3.680947e-01	 7.500000e-01
-9.297883e-01	 -3.680947e-01	 1.500000e+00
-9.297883e-01	 -3.680947e-01	 1.875000e+00
-9.297883e-01	 -3.680947e-01	 2.250000e+00
-9.297883e-01	 -3.680947e-01	 2.625000e+00
-9.297883e-01	 -3.680947e-01	 3.000000e+00
-9.297883e-01	 -3.680947e-01	 3.750000e-01
-9.297883e-01	 3.680947e-01	 3.750000e-01
-9.297883e-01	 3.680947e-01	 2.250000e+00
-9.297883e-01	 3.680947e-01	 2.625000e+00
-9.297883e-01	 3.680947e-01	 0
-9.297883e-01	 3.680947e-01	 7.500000e-01
-9.297883e-01	 3.680947e-01	 1.500000e+00
-9.297883e-01	 3.680947e-01	 1.875000e+00
-9.297883e-01	 3.680947e-01	 3.000000e+00
-9.297883e-01	 3.680947e-01	 1.125000e+00
-9.181659e-01	 3.634935e-01	 7.500000e-01
-9.181659e-01	 -3.634935e-01	 0
-9.181659e-01	 -3.634935e-01	 7.500000e-01
-9.181659e-01	 -3.634935e-01	 2.250000e+00
-9.181659e-01	 -3.634935e-01	 3
-9.181659e-01	 3.634935e-01	 0
-9.181659e-01	 3.634935e-01	 2.250000e+00
-9.181659e-01	 3.634935e-01	 3
-9.181659e-01	 -3.634935e-01	 1.500000e+00
-9.181659e-01	 3.634935e-01	 1.500000e+00
-9.065436e-01	 -3.588923e-01	 1.125000e+00
-9.065436e-01	 -3.588923e-01	 2.625000e+00
-9.065436e-01	 -3.588923e-01	 0
-9.065436e-01	 -3.588923e-01	 3.750000e-01
-9.065436e-01	 -3.588923e-01	 1.500000e+00
-9.065436e-01	 -3.588923e-01	 3
-9.065436e-01	 3.588923e-01	 2.625000e+00
-9.065436e-01	 3.588923e-01	 1.125000e+00
-9.065436e-01	 3.588923e-01	 0
-9.065436e-01	 3.588923e-01	 3.750000e-01
-9.065436e-01	 3.588923e-01	 3
-9.065436e-01	 -3.588923e-01	 7.500000e-01
-9.065436e-01	 -3.588923e-01	 1.875000e+00
-9.065436e-01	 3.588923e-01	 1.875000e+00
-9.065436e-01	 3.588923e-01	 1.500000e+00
-9.065436e-01	 -3.588923e-01	 2.250000e+00
-9.065436e-01	 3.588923e-01	 7.500000e-01
-9.065436e-01	 3.588923e-01	 2.250000e+00
-8.949212e-01	 3.542912e-01	 1.500000e+00
-8.949212e-01	 -3.542912e-01	 1.500000e+00
-8.949212e-01	 -3.542912e-01	 0
-8.949212e-01	 -3.542912e-01	 3.000000e+00
-8.949212e-01	 3.542912e-01	 0
-8.949212e-01	 3.542912e-01	 3.000000e+00
-8.949212e-01	 -3.542912e-01	 2.250000e+00
-8.949212e-01	 -3.542912e-01	 7.500000e-01
-8.949212e-01	 3.542912e-01	 2.250000e+00
-8.949212e-01	 3.542912e-01	 7.500000e-01
-8.832989e-01	 -3.496900e-01	 1.125000e+00
-8.832989e-01	 -3.496900e-01	 1.875000e+00
-8.832989e-01	 -3.496900e-01	 2.625000e+00
-8.832989e-01	 -3.496900e-01	 2.250000e+00
-8.832989e-01	 3.496900e-01	 1.125000e+00
-8.832989e-01	 -3.496900e-01	 0
-8.832989e-01	 -3.496900e-01	 3.000000e+00
-8.832989e-01	 -3.496900e-01	 3.750000e-01
-8.832989e-01	 -3.496900e-01	 7.500000e-01
-8.832989e-01	 3.496900e-01	 3.750000e-01
-8.832989e-01	 3.496900e-01	 7.500000e-01
-8.832989e-01	 3.496900e-01	 2.250000e+00
-8.832989e-01	 3.496900e-01	 2.625000e+00
-8.832989e-01	 3.496900e-01	 0
-8.832989e-01	 3.496900e-01	 1.875000e+00
-8.832989e-01	 3.496900e-01	 3.000000e+00
-8.832989e-01	 -3.496900e-01	 1.500000e+00
-8.832989e-01	 3.496900e-01	 1.500000e+00
-8.369955e-01	 -5.472098e-01	 0
-8.369955e-01	 -5.472098e-01	 7.500000e-01
-8.369955e-01	 -5.472098e-01	 1.500000e+00
-8.369955e-01	 -5.472098e-01	 2.250000e+00
-8.369955e-01	 -5.472098e-01	 3
-8.369955e-01	 5.472098e-01	 0
-8.369955e-01	 5.472098e-01	 7.500000e-01
-8.369955e-01	 5.472098e-01	 1.500000e+00
-8.369955e-01	 5.472098e-01	 2.250000e+00
-8.369955e-01	 5.472098e-01	 3
-8.160706e-01	 -5.335295e-01	 7.500000e-01
-8.160706e-01	 5.335295e-01	 7.500000e-01
-8.160706e-01	 -5.335295e-01	 1.500000e+00
-8.160706e-01	 -5.335295e-01	 2.250000e+00
-8.160706e-01	 5.335295e-01	 1.500000e+00
-8.160706e-01	 5.335295e-01	 2.250000e+00
-8.160706e-01	 -5.335295e-01	 0
-8.160706e-01	 -5.335295e-01	 3.000000e+00
-8.160706e-01	 5.335295e-01	 0
-8.160706e-01	 5.335295e-01	 3.000000e+00
-7.951457e-01	 -5.198493e-01	 7.500000e-01
-7.951457e-01	 5.198493e-01	 7.500000e-01
-7.951457e-01	 -5.198493e-01	 0
-7.951457e-01	 -5.198493e-01	 1.500000e+00
-7.951457e-01	 -5.198493e-01	 2.250000e+00
-7.951457e-01	 -5.198493e-01	 3
-7.951457e-01	 5.198493e-01	 0
-7.951457e-01	 5.198493e-01	 1.500000e+00
-7.951457e-01	 5.198493e-01	 2.250000e+00
-7.951457e-01	 5.198493e-01	 3
-7.071068e-01	 -7.071068e-01	 0
-7.071068e-01	 -7.071068e-01	 3.750000e-01
-7.071068e-01	 -7.071068e-01	 7.500000e-01
-7.071068e-01	 -7.071068e-01	 1.125000e+00
-7.071068e-01	 -7.071068e-01	 1.500000e+00
-7.071068e-01	 -7.071068e-01	 1.875000e+00
-7.071068e-01	 -7.071068e-01	 2.250000e+00
-7.071068e-01	 -7.071068e-01	 2.625000e+00
-7.071068e-01	 -7.071068e-01	 3.000000e+00
-7.071068e-01	 7.071068e-01	 0
-7.071068e-01	 7.071068e-01	 3.750000e-01
-7.071068e-01	 7.071068e-01	 7.500000e-01
-7.071068e-01	 7.071068e-01	 1.125000e+00
-7.071068e-01	 7.071068e-01	 1.500000e+00
-7.071068e-01	 7.071068e-01	 1.875000e+00
-7.071068e-01	 7.071068e-01	 2.250000e+00
-7.071068e-01	 7.071068e-01	 2.625000e+00
-7.071068e-01	 7.071068e-01	 3.000000e+00
-6.982679e-01	 -6.982679e-01	 7.500000e-01
-6.982679e-01	 6.982679e-01	 7.500000e-01
-6.982679e-01	 -6.982679e-01	 0
-6.982679e-01	 -6.982679e-01	 2.250000e+00
-6.982679e-01	 -6.982679e-01	 3.000000e+00
-6.982679e-01	 6.982679e-01	 0
-6.982679e-01	 6.982679e-01	 2.250000e+00
-6.982679e-01	 6.982679e-01	 3.000000e+00
-6.982679e-01	 -6.982679e-01	 1.500000e+00
-6.982679e-01	 6.982679e-01	 1.500000e+00
-6.894291e-01	 -6.894291e-01	 3.750000e-01
-6.894291e-01	 -6.894291e-01	 2.625000e+00
-6.894291e-01	 -6.894291e-01	 0
-6.894291e-01	 -6.894291e-01	 1.500000e+00
-6.894291e-01	 -6.894291e-01	 2.250000e+00
-6.894291e-01	 -6.894291e-01	 3.000000e+00
-6.894291e-01	 6.894291e-01	 3.750000e-01
-6.894291e-01	 6.894291e-01	 2.625000e+00
-6.894291e-01	 -6.894291e-01	 1.875000e+00
-6.894291e-01	 6.894291e-01	 1.875000e+00
-6.894291e-01	 -6.894291e-01	 7.500000e-01
-6.894291e-01	 -6.894291e-01	 1.125000e+00
-6.894291e-01	 6.894291e-01	 0
-6.894291e-01	 6.894291e-01	 1.500000e+00
-6.894291e-01	 6.894291e-01	 2.250000e+00
-6.894291e-01	 6.894291e-01	 3.000000e+00
-6.894291e-01	 6.894291e-01	 7.500000e-01
-6.894291e-01	 6.894291e-01	 1.125000e+00
-6.805903e-01	 6.805903e-01	 7.500000e-01
-6.805903e-01	 -6.805903e-01	 7.500000e-01
-6.805903e-01	 -6.805903e-01	 0
-6.805903e-01	 -6.805903e-01	 1.500000e+00
-6.805903e-01	 -6.805903e-01	 3.000000e+00
-6.805903e-01	 6.805903e-01	 0
-6.805903e-01	 6.805903e-01	 1.500000e+00
-6.805903e-01	 6.805903e-01	 3.000000e+00
-6.805903e-01	 6.805903e-01	 2.250000e+00
-6.805903e-01	 -6.805903e-01	 2.250000e+00
-6.717514e-01	 -6.717514e-01	 2.625000e+00
-6.717514e-01	 6.717514e-01	 2.625000e+00
-6.717514e-01	 -6.717514e-01	 0
-6.717514e-01	 -6.717514e-01	 3.750000e-01
-6.717514e-01	 -6.717514e-01	 7.500000e-01
-6.717514e-01	 -6.717514e-01	 1.125000e+00
-6.717514e-01	 -6.717514e-01	 1.875000e+00
-6.717514e-01	 -6.717514e-01	 3.000000e+00
-6.717514e-01	 -6.717514e-01	 2.250000e+00
-6.717514e-01	 6.717514e-01	 1.500000e+00
-6.717514e-01	 6.717514e-01	 0
-6.717514e-01	 6.717514e-01	 3.750000e-01
-6.717514e-01	 6.717514e-01	 7.500000e-01
-6.717514e-01	 6.717514e-01	 1.125000e+00
-6.717514e-01	 6.717514e-01	 1.875000e+00
-6.717514e-01	 6.717514e-01	 3.000000e+00
-6.717514e-01	 -6.717514e-01	 1.500000e+00
-6.717514e-01	 6.717514e-01	 2.250000e+00
-5.472098e-01	 -8.369955e-01	 0
-5.472098e-01	 -8.369955e-01	 7.500000e-01
-5.472098e-01	 -8.369955e-01	 1.500000e+00
-5.472098e-01	 -8.369955e-01	 2.250000e+00
-5.472098e-01	 -8.369955e-01	 3
-5.472098e-01	 8.369955e-01	 0
-5.472098e-01	 8.369955e-01	 7.500000e-01
-5.472098e-01	 8.369955e-01	 1.500000e+00
-5.472098e-01	 8.369955e-01	 2.250000e+00
-5.472098e-01	 8.369955e-01	 3
-5.335295e-01	 -8.160706e-01	 1.500000e+00
-5.335295e-01	 -8.160706e-01	 2.250000e+00
-5.335295e-01	 8.160706e-01	 0
-5.335295e-01	 8.160706e-01	 3.000000e+00
[...]
POINT_DATA 832
VECTORS displacement float
0	 0	 -6.660660e-11
-3.071456e-10	 -1.291894e-10	 -4.352015e-11
-4.074550e-10	 -1.870037e-10	 1.752880e-17
-3.071455e-10	 -1.291895e-10	 4.352019e-11
2.943675e-16	 -2.106113e-16	 6.660663e-11
3.071460e-10	 1.291891e-10	 4.352019e-11
4.074554e-10	 1.870034e-10	 3.155191e-17
3.071459e-10	 1.291893e-10	 -4.352013e-11
0	 0	 -6.660658e-11
0	 0	 -5.377405e-11
2.954177e-16	 -2.533029e-16	 5.377408e-11
0	 0	 -5.377402e-11
4.090590e-10	 2.130096e-10	 3.433559e-17
-4.090586e-10	 -2.130100e-10	 1.474530e-17
-7.024723e-10	 -2.302163e-10	 -3.023698e-17
0	 0	 -1.189175e-10
-3.360528e-16	 -2.618133e-16	 1.189175e-10
0	 0	 -1.189173e-10
2.823219e-11	 2.085312e-10	 -7.816226e-18
0	 0	 1.175744e-12
7.158793e-16	 -2.904408e-16	 -1.175655e-12
0	 0	 1.175657e-12
-2.823118e-11	 -2.085316e-10	 5.348010e-17
7.024718e-10	 2.302159e-10	 8.134071e-17
-4.101931e-10	 -2.388970e-10	 1.199769e-17
-3.084234e-10	 -1.674497e-10	 2.920911e-11
0	 0	 -4.100726e-11
-3.084236e-10	 -1.674495e-10	 -2.920909e-11
3.084239e-10	 1.674491e-10	 2.920913e-11
3.084238e-10	 1.674493e-10	 -2.920906e-11
0	 0	 -4.100722e-11
2.958772e-16	 -2.957366e-16	 4.100729e-11
4.101935e-10	 2.388966e-10	 3.708319e-17
2.961115e-16	 -3.377910e-16	 2.821603e-11
4.112525e-10	 2.644772e-10	 3.984049e-17
0	 0	 -2.821600e-11
-4.112521e-10	 -2.644777e-10	 9.240403e-18
0	 0	 -2.821596e-11
0	 0	 -7.452178e-11
0	 0	 -7.452164e-11
-3.211846e-16	 -3.462816e-16	 7.452176e-11
0	 0	 3.050979e-13
0	 0	 3.050515e-13
7.110114e-16	 -3.199033e-16	 -3.050291e-13
-3.800699e-11	 -2.611838e-10	 3.921273e-17
-6.998404e-10	 -2.543465e-10	 -2.288769e-17
6.998400e-10	 2.543460e-10	 7.399147e-17
3.800799e-11	 2.611834e-10	 6.447402e-18
0	 0	 -1.532777e-11
-3.086192e-10	 -2.055440e-10	 -1.484154e-11
-3.086191e-10	 -2.055442e-10	 1.484155e-11
2.956436e-16	 -3.801735e-16	 1.532779e-11
3.086196e-10	 2.055435e-10	 1.484157e-11
4.117850e-10	 2.903407e-10	 4.262884e-17
3.086195e-10	 2.055437e-10	 -1.484149e-11
0	 0	 -1.532772e-11
-4.117846e-10	 -2.903413e-10	 6.452198e-18
-3.057618e-16	 -4.313367e-16	 3.007348e-11
0	 0	 -3.007348e-11
0	 0	 -3.007337e-11
4.801819e-11	 3.144157e-10	 2.068571e-17
0	 0	 -5.886933e-13
7.024352e-16	 -3.488534e-16	 5.887420e-13
0	 0	 -5.886993e-13
-6.947491e-10	 -2.782786e-10	 -1.551831e-17
6.947487e-10	 2.782780e-10	 6.662218e-17
-4.801720e-11	 -3.144162e-10	 2.497064e-17
-5.586808e-10	 -2.070807e-10	 8.429305e-11
0	 0	 -1.297682e-10
-7.403328e-10	 -2.709248e-10	 -7.540702e-17
-9.360814e-16	 -4.478114e-16	 1.297682e-10
5.586791e-10	 2.070799e-10	 8.429316e-11
7.403315e-10	 2.709242e-10	 1.270523e-16
5.586796e-10	 2.070801e-10	 -8.429292e-11
0	 0	 -1.297680e-10
-5.586803e-10	 -2.070805e-10	 -8.429319e-11
2.646063e-10	 -2.402535e-10	 4.719743e-11
-3.438281e-10	 3.313988e-10	 -1.979773e-17
-2.646058e-10	 2.402532e-10	 4.719732e-11
0	 0	 7.255595e-11
3.438291e-10	 -3.313993e-10	 6.043874e-17
7.147854e-16	 -3.361742e-16	 -7.255585e-11
-2.646054e-10	 2.402530e-10	 -4.719735e-11
0	 0	 7.255584e-11
2.646067e-10	 -2.402536e-10	 -4.719731e-11
3.364526e-10	 -3.549729e-10	 5.283108e-17
0	 0	 -1.048319e-10
-7.440161e-10	 -2.700014e-10	 -6.540108e-17
7.440148e-10	 2.700008e-10	 1.170464e-16
0	 0	 -1.048316e-10
0	 0	 5.851155e-11
-3.364516e-10	 3.549725e-10	 -1.218970e-17
0	 0	 5.851146e-11
-9.244020e-16	 -4.833731e-16	 1.048318e-10
7.210180e-16	 -3.256055e-16	 -5.851147e-11
-5.623822e-10	 -2.042509e-10	 5.661619e-11
5.623809e-10	 2.042502e-10	 -5.661608e-11
0	 0	 -8.001249e-11
-5.623817e-10	 -2.042506e-10	 -5.661629e-11
-9.121021e-16	 -5.184743e-16	 8.001242e-11
0	 0	 -8.001226e-11
-2.529191e-10	 2.736685e-10	 3.174985e-11
2.529201e-10	 -2.736689e-10	 -3.174983e-11
0	 0	 4.453776e-11
2.529197e-10	 -2.736687e-10	 3.174992e-11
0	 0	 4.453769e-11
-7.468979e-10	 -2.687715e-10	 -5.543420e-17
5.623805e-10	 2.042499e-10	 5.661628e-11
-2.529187e-10	 2.736683e-10	 -3.174986e-11
7.264544e-16	 -3.148875e-16	 -4.453769e-11
7.468966e-10	 2.687708e-10	 1.070794e-16
3.286338e-10	 -3.782907e-10	 4.526750e-17
-3.286328e-10	 3.782903e-10	 -4.625901e-18
7.316131e-16	 -3.042295e-16	 -3.055635e-11
-8.997033e-16	 -5.531691e-16	 5.515898e-11
0	 0	 -5.515903e-11
0	 0	 -5.515882e-11
0	 0	 3.055641e-11
0	 0	 3.055637e-11
7.497168e-10	 2.675860e-10	 9.710403e-17
-7.497181e-10	 -2.675868e-10	 -4.545898e-17
-3.209053e-10	 4.013301e-10	 2.952093e-18
3.209064e-10	 -4.013305e-10	 3.768977e-17
-5.642819e-10	 -2.007542e-10	 2.883162e-11
5.642802e-10	 2.007531e-10	 2.883168e-11
5.642807e-10	 2.007534e-10	 -2.883152e-11
7.516519e-10	 2.659990e-10	 8.708032e-17
2.402337e-10	 -3.065384e-10	 -1.626020e-11
0	 0	 -3.012050e-11
0	 0	 -3.012032e-11
-5.642814e-10	 -2.007539e-10	 -2.883168e-11
-7.516531e-10	 -2.659998e-10	 -3.543523e-17
2.402333e-10	 -3.065382e-10	 1.626026e-11
3.125610e-10	 -4.243827e-10	 3.006475e-17
-3.125600e-10	 4.243823e-10	 1.057749e-17
-2.402327e-10	 3.065380e-10	 1.626023e-11
0	 0	 1.646921e-11
-2.402323e-10	 3.065378e-10	 -1.626021e-11
0	 0	 1.646918e-11
-8.863975e-16	 -5.877573e-16	 3.012046e-11
7.359528e-16	 -2.930773e-16	 -1.646916e-11
0	 0	 -1.049616e-10
-6.125049e-10	 -2.399150e-10	 -9.768330e-17
-1.235180e-15	 -6.519210e-16	 1.049615e-10
6.125032e-10	 2.399141e-10	 1.481270e-16
0	 0	 -1.049612e-10
0	 0	 1.256920e-10
6.014970e-10	 -4.852382e-10	 4.239082e-17
4.193026e-16	 -2.119901e-16	 -1.256919e-10
-6.014964e-10	 4.852379e-10	 -8.298354e-18
0	 0	 1.256919e-10
-6.320132e-10	 -2.128636e-10	 -7.113606e-17
5.922086e-10	 -5.026920e-10	 3.348319e-17
-1.229553e-15	 -6.634327e-16	 6.637005e-11
6.320115e-10	 2.128627e-10	 1.215800e-16
4.491394e-16	 -1.668146e-16	 -7.935037e-11
-5.922080e-10	 5.026918e-10	 6.036932e-19
0	 0	 -6.637013e-11
0	 0	 -6.636986e-11
0	 0	 7.935043e-11
0	 0	 7.935038e-11
-6.499436e-10	 -1.843165e-10	 -4.459880e-17
5.807464e-10	 -5.189727e-10	 2.459006e-17
0	 0	 -2.774812e-11
-1.220543e-15	 -6.728312e-16	 2.774807e-11
6.499419e-10	 1.843156e-10	 9.504299e-17
0	 0	 -2.774792e-11
0	 0	 3.295496e-11
4.778941e-16	 -1.203793e-16	 -3.295492e-11
-5.807457e-10	 5.189725e-10	 9.491182e-18
0	 0	 3.295494e-11
0	 0	 -3.412497e-11
-2.166901e-10	 -9.391287e-12	 -2.239882e-11
-3.005035e-10	 -4.492752e-13	 -7.408668e-17
-2.166907e-10	 -9.391611e-12	 2.239869e-11
-1.085342e-15	 -5.882375e-16	 3.412488e-11
2.166886e-10	 9.390507e-12	 2.239879e-11
3.005019e-10	 4.484431e-13	 1.214885e-16
2.166892e-10	 9.390830e-12	 -2.239856e-11
0	 0	 -3.412469e-11
0	 0	 1.270314e-10
4.390807e-10	 -3.877946e-10	 8.287516e-11
5.849947e-10	 -5.103104e-10	 4.403454e-18
4.390807e-10	 -3.877945e-10	 -8.287515e-11
-6.540647e-18	 1.206353e-16	 -1.270313e-10
-4.390807e-10	 3.877947e-10	 -8.287514e-11
-5.849947e-10	 5.103105e-10	 2.187200e-17
-4.390807e-10	 3.877947e-10	 8.287518e-11
0	 0	 1.270314e-10
-3.215420e-10	 1.935531e-11	 -6.263914e-17
5.913564e-10	 -5.083375e-10	 5.243899e-18
0	 0	 -2.757026e-11
3.215404e-10	 -1.935612e-11	 1.100411e-16
0	 0	 -2.757002e-11
0	 0	 1.027235e-10
-5.913564e-10	 5.083377e-10	 2.102850e-17
0	 0	 1.027236e-10
-1.104173e-15	 -5.729598e-16	 2.757019e-11
1.959996e-17	 1.471455e-16	 -1.027235e-10
-2.465528e-10	 1.958651e-11	 -1.482044e-11
2.465520e-10	 -1.958694e-11	 -1.482024e-11
0	 0	 -2.105086e-11
-1.122321e-15	 -5.572368e-16	 2.105080e-11
3.423288e-10	 -3.926968e-11	 9.863428e-17
0	 0	 -2.105065e-11
4.469778e-10	 -3.832350e-10	 5.554159e-11
-4.469777e-10	 3.832351e-10	 5.554161e-11
2.465513e-10	 -1.958725e-11	 1.482042e-11
-4.469777e-10	 3.832352e-10	 -5.554157e-11
-3.423303e-10	 3.926889e-11	 -5.123238e-17
-2.465534e-10	 1.958620e-11	 1.482034e-11
0	 0	 7.852787e-11
4.569626e-17	 1.734295e-16	 -7.852786e-11
-5.971290e-10	 5.057731e-10	 2.019231e-17
0	 0	 7.852789e-11
5.971291e-10	 -5.057728e-10	 6.076972e-18
4.469778e-10	 -3.832349e-10	 -5.554158e-11
6.027981e-10	 -5.032232e-10	 6.911224e-18
-3.628616e-10	 5.895221e-11	 -3.981228e-17
0	 0	 -1.452539e-11
-1.140143e-15	 -5.413863e-16	 1.452535e-11
0	 0	 -1.452521e-11
0	 0	 5.430815e-11
7.152598e-17	 1.994289e-16	 -5.430813e-11
0	 0	 5.430817e-11
-6.027980e-10	 5.032234e-10	 1.935494e-17
3.628600e-10	 -5.895297e-11	 8.721413e-17
2.759171e-10	 -4.882883e-11	 -7.214429e-12
-4.535383e-10	 3.773841e-10	 2.810691e-11
0	 0	 -7.946525e-12
-2.759180e-10	 4.882842e-11	 -7.214570e-12
-3.833829e-10	 7.904059e-11	 -2.834066e-17
-2.759186e-10	 4.882813e-11	 7.214518e-12
2.759164e-10	 -4.882912e-11	 7.214576e-12
0	 0	 -7.946378e-12
3.833812e-10	 -7.904133e-11	 7.574263e-17
9.764580e-17	 2.254817e-16	 -2.990751e-11
0	 0	 2.990752e-11
4.535383e-10	 -3.773839e-10	 2.810689e-11
6.078352e-10	 -4.999674e-10	 7.754105e-18
4.535384e-10	 -3.773838e-10	 -2.810688e-11
-4.535382e-10	 3.773842e-10	 -2.810687e-11
0	 0	 2.990754e-11
-1.157420e-15	 -5.247654e-16	 7.946499e-12
-6.078351e-10	 4.999677e-10	 1.850899e-17
0	 0	 4.752398e-11
-8.967982e-12	 3.456987e-10	 -1.885763e-17
-7.457571e-16	 -2.074631e-16	 -4.752400e-11
8.966927e-12	 -3.456990e-10	 6.151603e-17
0	 0	 4.752409e-11
0	 0	 9.114481e-11
4.445742e-10	 -3.879169e-10	 -3.137805e-17
-2.976600e-16	 5.134972e-16	 -9.114485e-11
-4.445746e-10	 3.879176e-10	 4.902477e-17
0	 0	 9.114492e-11
-8.089393e-16	 -1.665255e-16	 -3.021797e-11
5.166848e-11	 -3.744820e-10	 5.034848e-17
0	 0	 5.733994e-11
0	 0	 5.734002e-11
-2.626992e-16	 5.370379e-16	 -5.733996e-11
-4.779670e-10	 3.676010e-10	 3.778290e-17
-5.166962e-11	 3.744818e-10	 -7.687417e-18
0	 0	 3.021798e-11
0	 0	 3.021806e-11
4.779666e-10	 -3.676002e-10	 -2.013865e-17
5.106114e-10	 -3.453580e-10	 -8.913846e-18
-9.530597e-11	 4.029072e-10	 3.480623e-18
0	 0	 1.290352e-11
-8.717818e-16	 -1.240713e-16	 -1.290350e-11
9.530474e-11	 -4.029074e-10	 3.918314e-17
0	 0	 1.290357e-11
0	 0	 2.349490e-11
-2.262186e-16	 5.589062e-16	 -2.349490e-11
-5.106117e-10	 3.453588e-10	 2.655563e-17
0	 0	 2.349495e-11
1.054232e-10	 4.977990e-10	 -7.087613e-11
1.700627e-10	 -1.654504e-11	 -1.043603e-11
0	 0	 1.092014e-10
1.291148e-10	 6.635520e-10	 5.465821e-17
-4.196093e-16	 4.044747e-16	 -1.092013e-10
-1.054240e-10	 -4.977983e-10	 -7.087617e-11
0	 0	 1.092013e-10
0	 0	 1.543874e-11
2.425743e-10	 -1.620942e-11	 -4.363108e-17
-3.563642e-16	 6.946735e-16	 -1.543880e-11
-1.700633e-10	 1.654634e-11	 -1.043598e-11
-2.425748e-10	 1.621041e-11	 5.240509e-17
-1.700631e-10	 1.654596e-11	 1.043608e-11
0	 0	 1.543887e-11
1.054234e-10	 4.977988e-10	 7.087624e-11
-1.291154e-10	 -6.635514e-10	 -1.809492e-17
-1.054238e-10	 -4.977985e-10	 7.087614e-11
1.700629e-10	 -1.654542e-11	 1.043595e-11
-4.634954e-16	 4.221300e-16	 -8.823953e-11
-3.548713e-16	 6.972625e-16	 -1.231512e-11
1.124118e-10	 6.728978e-10	 5.253556e-17
0	 0	 8.823962e-11
-1.124124e-10	 -6.728972e-10	 -1.597338e-17
0	 0	 8.823952e-11
0	 0	 1.231507e-11
2.718571e-10	 -5.220383e-12	 -3.611734e-17
-2.718576e-10	 5.221369e-12	 4.488722e-17
0	 0	 1.231518e-11
-9.555288e-11	 -6.815372e-10	 -1.385472e-17
-3.009504e-10	 -5.899496e-12	 3.740682e-17
2.119386e-10	 -3.809914e-13	 -6.700528e-12
-2.119390e-10	 3.819154e-13	 6.700562e-12
0	 0	 6.737433e-11
8.053492e-11	 5.097588e-10	 4.749767e-11
0	 0	 6.737424e-11
-5.073028e-16	 4.396669e-16	 -6.737425e-11
0	 0	 9.221897e-12
2.119388e-10	 -3.813742e-13	 6.700475e-12
-3.530948e-16	 6.992169e-16	 -9.221935e-12
0	 0	 9.221991e-12
8.053465e-11	 5.097591e-10	 -4.749758e-11
-8.053558e-11	 -5.097582e-10	 -4.749761e-11
9.555216e-11	 6.815378e-10	 5.041567e-17
3.009499e-10	 5.900485e-12	 -2.864102e-17
-2.119392e-10	 3.822983e-13	 -6.700492e-12
-8.053531e-11	 -5.097585e-10	 4.749759e-11
-5.506753e-16	 4.570532e-16	 -4.647296e-11
-7.890435e-11	 -6.900592e-10	 -1.172696e-17
-3.296985e-10	 -1.688828e-11	 2.991378e-17
0	 0	 6.138868e-12
0	 0	 6.138940e-12
-3.513456e-16	 7.008970e-16	 -6.138895e-12
0	 0	 4.647303e-11
0	 0	 4.647295e-11
7.890357e-11	 6.900599e-10	 4.828664e-17
3.296980e-10	 1.688927e-11	 -2.115212e-17
5.519725e-11	 5.201872e-10	 -2.401684e-11
0	 0	 2.541597e-11
-5.519834e-11	 -5.201863e-10	 -2.401687e-11
0	 0	 2.541589e-11
-5.943464e-16	 4.744326e-16	 -2.541590e-11
0	 0	 3.021665e-12
0	 0	 3.021716e-12
2.534984e-10	 1.605755e-11	 -2.972953e-12
-2.534991e-10	 -1.605624e-11	 -2.972932e-12
-2.534989e-10	 -1.605662e-11	 2.972976e-12
5.519757e-11	 5.201870e-10	 2.401693e-11
6.174447e-11	 6.979114e-10	 4.614833e-17
-6.174531e-11	 -6.979108e-10	 -9.589808e-18
-5.519802e-11	 -5.201866e-10	 2.401686e-11
-3.492559e-16	 7.018394e-16	 -3.021682e-12
2.534986e-10	 1.605716e-11	 2.972926e-12
-3.586640e-10	 -2.820532e-11	 2.237894e-17
3.586635e-10	 2.820631e-11	 -1.362147e-17
1.554937e-10	 8.556440e-10	 1.222352e-16
1.144432e-10	 4.187091e-10	 -3.349548e-17
0	 0	 1.395122e-10
-2.549328e-16	 1.029176e-15	 -1.395120e-10
0	 0	 1.395119e-10
0	 0	 -6.378153e-11
-2.995307e-16	 6.074233e-16	 6.378148e-11
0	 0	 -6.378143e-11
-1.554940e-10	 -8.556426e-10	 -9.265855e-17
-1.144437e-10	 -4.187082e-10	 3.367804e-17
1.524618e-10	 8.584064e-10	 1.036950e-16
0	 0	 8.747671e-11
0	 0	 8.747646e-11
1.658842e-10	 4.292802e-10	 -2.107234e-17
-1.658847e-10	 -4.292793e-10	 2.125765e-17
0	 0	 -4.044975e-11
0	 0	 -4.044969e-11
-1.524622e-10	 -8.584049e-10	 -7.411302e-17
-3.310961e-16	 6.020518e-16	 4.044972e-11
-3.235626e-16	 1.043497e-15	 -8.747656e-11
-3.624220e-16	 5.942296e-16	 1.711773e-11
0	 0	 3.539929e-11
-3.930625e-16	 1.056004e-15	 -3.539916e-11
0	 0	 3.539909e-11
0	 0	 -1.711774e-11
0	 0	 -1.711772e-11
-1.487940e-10	 -8.581216e-10	 -5.557166e-17
1.487934e-10	 8.581230e-10	 8.515899e-17
2.181502e-10	 4.387659e-10	 -8.662387e-18
-2.181507e-10	 -4.387651e-10	 8.850543e-18
0	 0	 1.156772e-10
7.798108e-11	 5.400774e-10	 7.595367e-11
1.126033e-10	 7.190491e-10	 1.630677e-16
7.798095e-11	 5.400782e-10	 -7.595337e-11
-2.425646e-16	 1.432201e-15	 -1.156769e-10
-7.798140e-11	 -5.400755e-10	 -7.595353e-11
-1.126037e-10	 -7.190471e-10	 -1.408498e-16
-7.798127e-11	 -5.400763e-10	 7.595328e-11
0	 0	 1.156767e-10
0	 0	 9.333089e-11
-2.627870e-16	 1.434862e-15	 -9.333068e-11
0	 0	 9.333050e-11
-1.297715e-10	 -7.219289e-10	 -1.269435e-16
1.297712e-10	 7.219309e-10	 1.491628e-16
1.468328e-10	 7.239278e-10	 1.352921e-16
1.028575e-10	 5.422920e-10	 -5.053842e-11
0	 0	 7.111090e-11
1.028576e-10	 5.422912e-10	 5.053868e-11
-1.028580e-10	 -5.422893e-10	 -5.053856e-11
-1.028578e-10	 -5.422901e-10	 5.053835e-11
0	 0	 7.111055e-11
-2.830410e-16	 1.436795e-15	 -7.111070e-11
-1.468332e-10	 -7.239258e-10	 -1.130714e-16
-3.030481e-16	 1.438282e-15	 -4.884785e-11
-1.637107e-10	 -7.257796e-10	 -9.917773e-17
0	 0	 4.884803e-11
1.637102e-10	 7.257816e-10	 1.213998e-16
0	 0	 4.884772e-11
0	 0	 2.640598e-11
1.276261e-10	 5.425313e-10	 2.502385e-11
1.276259e-10	 5.425321e-10	 -2.502364e-11
-3.231447e-16	 1.438950e-15	 -2.640582e-11
-1.276265e-10	 -5.425294e-10	 -2.502375e-11
-1.807815e-10	 -7.266293e-10	 -8.523487e-17
-1.276264e-10	 -5.425302e-10	 2.502359e-11
0	 0	 2.640571e-11
1.807810e-10	 7.266313e-10	 1.074584e-16
1.807810e-10	 7.266304e-10	 7.475043e-18
0	 0	 -2.640582e-11
1.276261e-10	 5.425308e-10	 -2.502370e-11
1.276259e-10	 5.425309e-10	 2.502371e-11
-3.753846e-16	 2.418525e-16	 2.640582e-11
-1.276266e-10	 -5.425304e-10	 2.502370e-11
-1.807815e-10	 -7.266301e-10	 -1.514186e-17
-1.276264e-10	 -5.425306e-10	 -2.502373e-11
0	 0	 -2.640585e-11
0	 0	 -4.884785e-11
1.637102e-10	 7.257807e-10	 5.147794e-18
0	 0	 -4.884788e-11
-3.416533e-16	 2.420376e-16	 4.884786e-11
-1.637107e-10	 -7.257803e-10	 -1.281488e-17
-3.081500e-16	 2.417978e-16	 7.111070e-11
-1.468333e-10	 -7.239266e-10	 -1.050695e-17
0	 0	 -7.111070e-11
1.028576e-10	 5.422907e-10	 -5.053849e-11
-1.028580e-10	 -5.422904e-10	 5.053849e-11
-1.028578e-10	 -5.422905e-10	 -5.053851e-11
0	 0	 -7.111072e-11
1.468328e-10	 7.239269e-10	 2.839517e-18
1.028574e-10	 5.422909e-10	 5.053850e-11
1.297712e-10	 7.219300e-10	 5.386981e-19
-1.297716e-10	 -7.219296e-10	 -8.206467e-18
0	 0	 -9.333068e-11
-2.742857e-16	 2.413752e-16	 9.333068e-11
0	 0	 -9.333069e-11
0	 0	 -1.156769e-10
7.798108e-11	 5.400769e-10	 -7.595346e-11
1.126034e-10	 7.190482e-10	 -1.783875e-18
7.798095e-11	 5.400770e-10	 7.595345e-11
-2.403211e-16	 2.405817e-16	 1.156769e-10
-7.798139e-11	 -5.400766e-10	 7.595345e-11
-1.126037e-10	 -7.190478e-10	 -5.884170e-18
-7.798126e-11	 -5.400767e-10	 -7.595346e-11
0	 0	 -1.156769e-10
2.181502e-10	 4.387667e-10	 1.147458e-16
-2.181506e-10	 -4.387644e-10	 -1.003849e-16
1.487934e-10	 8.581221e-10	 2.632679e-17
-1.487940e-10	 -8.581224e-10	 -4.134935e-17
0	 0	 1.711789e-11
0	 0	 1.711759e-11
0	 0	 -3.539913e-11
-4.172842e-16	 -2.388815e-16	 3.539917e-11
0	 0	 -3.539923e-11
-2.849443e-16	 1.585635e-15	 -1.711773e-11
-3.483218e-16	 -2.512362e-16	 8.747656e-11
-2.842362e-16	 1.586265e-15	 -4.044972e-11
-1.524623e-10	 -8.584058e-10	 -4.741646e-17
0	 0	 4.044993e-11
0	 0	 4.044954e-11
1.658843e-10	 4.292810e-10	 1.458171e-16
-1.658847e-10	 -4.292787e-10	 -1.314545e-16
0	 0	 -8.747652e-11
0	 0	 -8.747663e-11
1.524618e-10	 8.584054e-10	 3.239535e-17
-1.144436e-10	 -4.187076e-10	 -1.625155e-16
-1.554941e-10	 -8.556434e-10	 -5.346610e-17
0	 0	 6.378174e-11
-2.830226e-16	 1.584238e-15	 -6.378149e-11
0	 0	 6.378126e-11
0	 0	 -1.395120e-10
-2.798684e-16	 -2.633433e-16	 1.395120e-10
0	 0	 -1.395121e-10
1.144432e-10	 4.187099e-10	 1.768798e-16
1.554937e-10	 8.556431e-10	 3.844640e-17
3.586637e-10	 2.820692e-11	 9.659215e-17
-3.586639e-10	 -2.820484e-11	 -9.079748e-17
2.534987e-10	 1.605751e-11	 -2.972817e-12
-2.029938e-16	 1.470368e-15	 3.021688e-12
5.519760e-11	 5.201865e-10	 -2.401681e-11
6.174452e-11	 6.979106e-10	 4.302855e-17
-6.174530e-11	 -6.979116e-10	 -6.502036e-17
-5.519802e-11	 -5.201871e-10	 -2.401696e-11
2.534986e-10	 1.605831e-11	 2.973000e-12
-2.534989e-10	 -1.605557e-11	 2.972896e-12
-2.534988e-10	 -1.605637e-11	 -2.973068e-12
0	 0	 -3.021549e-12
0	 0	 -3.021814e-12
-5.526110e-16	 -7.226356e-16	 2.541590e-11
0	 0	 -2.541585e-11
-5.519832e-11	 -5.201874e-10	 2.401683e-11
0	 0	 -2.541600e-11
5.519730e-11	 5.201861e-10	 2.401689e-11
3.296981e-10	 1.688988e-11	 1.105793e-16
7.890361e-11	 6.900590e-10	 5.151086e-17
0	 0	 -4.647290e-11
0	 0	 -4.647307e-11
-2.192616e-16	 1.462977e-15	 6.138899e-12
0	 0	 -6.138741e-12
0	 0	 -6.139045e-12
-3.296985e-10	 -1.688781e-11	 -1.047882e-16
-7.890435e-11	 -6.900601e-10	 -7.350598e-17
-5.223720e-16	 -7.340550e-16	 4.647296e-11
-8.053532e-11	 -5.097589e-10	 -4.749772e-11
3.009500e-10	 5.901083e-12	 1.245210e-16
-2.119391e-10	 3.829509e-13	 6.700448e-12
9.555219e-11	 6.815370e-10	 5.996238e-17
-8.053558e-11	 -5.097593e-10	 4.749756e-11
8.053467e-11	 5.097580e-10	 4.749764e-11
0	 0	 -9.221760e-12
2.119388e-10	 -3.810372e-13	 -6.700348e-12
-2.351767e-16	 1.454962e-15	 9.221938e-12
0	 0	 -9.222104e-12
-4.921265e-16	 -7.449127e-16	 6.737426e-11
0	 0	 -6.737418e-11
8.053494e-11	 5.097584e-10	 -4.749753e-11
0	 0	 -6.737438e-11
2.119387e-10	 -3.802446e-13	 6.700580e-12
-2.119390e-10	 3.821583e-13	 -6.700668e-12
-3.009503e-10	 -5.899026e-12	 -1.187335e-16
-9.555289e-11	 -6.815380e-10	 -8.196093e-17
0	 0	 -1.231492e-11
2.718572e-10	 -5.219791e-12	 1.384425e-16
-2.718576e-10	 5.221836e-12	 -1.326585e-16
0	 0	 -1.231530e-11
0	 0	 -8.823945e-11
-1.124124e-10	 -6.728981e-10	 -9.040972e-17
0	 0	 -8.823967e-11
1.124118e-10	 6.728970e-10	 6.840780e-17
-2.511655e-16	 1.446549e-15	 1.231512e-11
-4.614799e-16	 -7.556917e-16	 8.823954e-11
1.700629e-10	 -1.654509e-11	 -1.043581e-11
1.054234e-10	 4.977983e-10	 -7.087607e-11
-1.291155e-10	 -6.635522e-10	 -9.888075e-17
-1.054238e-10	 -4.977989e-10	 -7.087630e-11
0	 0	 -1.543858e-11
2.425744e-10	 -1.620884e-11	 1.523916e-16
-2.668909e-16	 1.437561e-15	 1.543879e-11
-1.700633e-10	 1.654698e-11	 1.043593e-11
-2.425748e-10	 1.621087e-11	 -1.466111e-16
-1.700631e-10	 1.654620e-11	 -1.043620e-11
0	 0	 -1.543900e-11
0	 0	 -1.092012e-10
1.291148e-10	 6.635511e-10	 7.687558e-17
-4.305491e-16	 -7.660818e-16	 1.092013e-10
-1.054240e-10	 -4.977994e-10	 7.087612e-11
0	 0	 -1.092015e-10
1.700628e-10	 -1.654431e-11	 1.043609e-11
1.054232e-10	 4.977979e-10	 7.087621e-11
0	 0	 -2.349483e-11
1.236781e-17	 1.134639e-15	 2.349491e-11
-5.106116e-10	 3.453592e-10	 -6.218559e-17
0	 0	 -2.349500e-11
0	 0	 -1.290345e-11
-6.549736e-16	 -1.045839e-15	 1.290351e-11