# vtk DataFile Version 3.0
Unstructured Grid Example
ASCII
DATASET UNSTRUCTURED_GRID
POINTS 832 float
-1	 0	 0
-1	 0	 3.750000e-01
-1	 0	 7.500000e-01
-1	 0	 1.125000e+00
-1	 0	 1.500000e+00
-1	 0	 1.875000e+00
-1	 0	 2.250000e+00
-1	 0	 2.625000e+00
-1	 0	 3
-9.875000e-01	 0	 0
-9.875000e-01	 0	 1.500000e+00
-9.875000e-01	 0	 3
-9.875000e-01	 0	 2.250000e+00
-9.875000e-01	 0	 7.500000e-01
-9.833054e-01	 -1.819631e-01	 7.500000e-01
-9.833054e-01	 -1.819631e-01	 0
-9.833054e-01	 -1.819631e-01	 1.500000e+00
-9.833054e-01	 -1.819631e-01	 3.000000e+00
-9.833054e-01	 1.819631e-01	 2.250000e+00
-9.833054e-01	 1.819631e-01	 0
-9.833054e-01	 1.819631e-01	 1.500000e+00
-9.833054e-01	 1.819631e-01	 3.000000e+00
-9.833054e-01	 1.819631e-01	 7.500000e-01
-9.833054e-01	 -1.819631e-01	 2.250000e+00
-9.750000e-01	 0	 7.500000e-01
-9.750000e-01	 0	 1.125000e+00
-9.750000e-01	 0	 0
-9.750000e-01	 0	 3.750000e-01
-9.750000e-01	 0	 1.875000e+00
-9.750000e-01	 0	 2.625000e+00
-9.750000e-01	 0	 3
-9.750000e-01	 0	 1.500000e+00
-9.750000e-01	 0	 2.250000e+00
-9.625000e-01	 0	 1.500000e+00
-9.625000e-01	 0	 2.250000e+00
-9.625000e-01	 0	 0
-9.625000e-01	 0	 7.500000e-01
-9.625000e-01	 0	 3
-9.587227e-01	 -1.774140e-01	 0
-9.587227e-01	 -1.774140e-01	 3.000000e+00
-9.587227e-01	 -1.774140e-01	 1.500000e+00
-9.587227e-01	 1.774140e-01	 0
-9.587227e-01	 1.774140e-01	 3.000000e+00
-9.587227e-01	 1.774140e-01	 1.500000e+00
-9.587227e-01	 1.774140e-01	 7.500000e-01
-9.587227e-01	 -1.774140e-01	 7.500000e-01
-9.587227e-01	 -1.774140e-01	 2.250000e+00
-9.587227e-01	 1.774140e-01	 2.250000e+00
-9.500000e-01	 0	 0
-9.500000e-01	 0	 3.750000e-01
-9.500000e-01	 0	 1.125000e+00
-9.500000e-01	 0	 1.500000e+00
-9.500000e-01	 0	 1.875000e+00
-9.500000e-01	 0	 2.250000e+00
-9.500000e-01	 0	 2.625000e+00
-9.500000e-01	 0	 3
-9.500000e-01	 0	 7.500000e-01
-9.341401e-01	 -1.728649e-01	 1.500000e+00
-9.341401e-01	 -1.728649e-01	 0
-9.341401e-01	 -1.728649e-01	 3.000000e+00
-9.341401e-01	 1.728649e-01	 2.250000e+00
-9.341401e-01	 1.728649e-01	 0
-9.341401e-01	 1.728649e-01	 1.500000e+00
-9.341401e-01	 1.728649e-01	 3.000000e+00
-9.341401e-01	 -1.728649e-01	 7.500000e-01
-9.341401e-01	 -1.728649e-01	 2.250000e+00
-9.341401e-01	 1.728649e-01	 7.500000e-01
-9.297883e-01	 -3.680947e-01	 1.125000e+00
-9.297883e-01	 -3.680947e-01	 0
-9.297883e-01	 -3.680947e-01	 7.500000e-01
-9.297883e-01	 -3.680947e-01	 1.500000e+00
-9.297883e-01	 -3.680947e-01	 1.875000e+00
-9.297883e-01	 -3.680947e-01	 2.250000e+00
-9.297883e-01	 -3.680947e-01	 2.625000e+00
-9.297883e-01	 -3.680947e-01	 3.000000e+00
-9.297883e-01	 -3.680947e-01	 3.750000e-01
-9.297883e-01	 3.680947e-01	 3.750000e-01
-9.297883e-01	 3.680947e-01	 2.250000e+00
-9.297883e-01	 3.680947e-01	 2.625000e+00
-9.297883e-01	 3.680947e-01	 0
-9.297883e-01	 3.680947e-01	 7.500000e-01
-9.297883e-01	 3.680947e-01	 1.500000e+00
-9.297883e-01	 3.680947e-01	 1.875000e+00
-9.297883e-01	 3.680947e-01	 3.000000e+00
-9.297883e-01	 3.680947e-01	 1.125000e+00
-9.181659e-01	 3.634935e-01	 7.500000e-01
-9.181659e-01	 -3.634935e-01	 0
-9.181659e-01	 -3.634935e-01	 7.500000e-01
-9.181659e-01	 -3.634935e-01	 2.250000e+00
-9.181659e-01	 -3.634935e-01	 3
-9.181659e-01	 3.634935e-01	 0
-9.181659e-01	 3.634935e-01	 2.250000e+00
-9.181659e-01	 3.634935e-01	 3
-9.181659e-01	 -3.634935e-01	 1.500000e+00
-9.181659e-01	 3.634935e-01	 1.500000e+00
-9.065436e-01	 -3.588923e-01	 1.125000e+00
-9.065436e-01	 -3.588923e-01	 2.625000e+00
-9.065436e-01	 -3.588923e-01	 0
-9.065436e-01	 -3.588923e-01	 3.750000e-01
-9.065436e-01	 -3.588923e-01	 1.500000e+00
-9.065436e-01	 -3.588923e-01	 3
-9.065436e-01	 3.588923e-01	 2.625000e+00
-9.065436e-01	 3.588923e-01	 1.125000e+00
-9.065436e-01	 3.588923e-01	 0
-9.065436e-01	 3.588923e-01	 3.750000e-01
-9.065436e-01	 3.588923e-01	 3
-9.065436e-01	 -3.588923e-01	 7.500000e-01
-9.065436e-01	 -3.588923e-01	 1.875000e+00
-9.065436e-01	 3.588923e-01	 1.875000e+00
-9.065436e-01	 3.588923e-01	 1.500000e+00
-9.065436e-01	 -3.588923e-01	 2.250000e+00
-9.065436e-01	 3.588923e-01	 7.500000e-01
-9.065436e-01	 3.588923e-01	 2.250000e+00
-8.949212e-01	 3.542912e-01	 1.500000e+00
-8.949212e-01	 -3.542912e-01	 1.500000e+00
-8.949212e-01	 -3.542912e-01	 0
-8.949212e-01	 -3.542912e-01	 3.000000e+00
-8.949212e-01	 3.542912e-01	 0
-8.949212e-01	 3.542912e-01	 3.000000e+00
-8.949212e-01	 -3.542912e-01	 2.250000e+00
-8.949212e-01	 -3.542912e-01	 7.500000e-01
-8.949212e-01	 3.542912e-01	 2.250000e+00
-8.949212e-01	 3.542912e-01	 7.500000e-01
-8.832989e-01	 -3.496900e-01	 1.125000e+00
-8.832989e-01	 -3.496900e-01	 1.875000e+00
-8.832989e-01	 -3.496900e-01	 2.625000e+00
-8.832989e-01	 -3.496900e-01	 2.250000e+00
-8.832989e-01	 3.496900e-01	 1.125000e+00
-8.832989e-01	 -3.496900e-01	 0
-8.832989e-01	 -3.496900e-01	 3.000000e+00
-8.832989e-01	 -3.496900e-01	 3.750000e-01
-8.832989e-01	 -3.496900e-01	 7.500000e-01
-8.832989e-01	 3.496900e-01	 3.750000e-01
-8.832989e-01	 3.496900e-01	 7.500000e-01
-8.832989e-01	 3.496900e-01	 2.250000e+00
-8.832989e-01	 3.496900e-01	 2.625000e+00
-8.832989e-01	 3.496900e-01	 0
-8.832989e-01	 3.496900e-01	 1.875000e+00
-8.832989e-01	 3.496900e-01	 3.000000e+00
-8.832989e-01	 -3.496900e-01	 1.500000e+00
-8.832989e-01	 3.496900e-01	 1.500000e+00
-8.369955e-01	 -5.472098e-01	 0
-8.369955e-01	 -5.472098e-01	 7.500000e-01
-8.369955e-01	 -5.472098e-01	 1.500000e+00
-8.369955e-01	 -5.472098e-01	 2.250000e+00
-8.369955e-01	 -5.472098e-01	 3
-8.369955e-01	 5.472098e-01	 0
-8.369955e-01	 5.472098e-01	 7.500000e-01
-8.369955e-01	 5.472098e-01	 1.500000e+00
-8.369955e-01	 5.472098e-01	 2.250000e+00
-8.369955e-01	 5.472098e-01	 3
-8.160706e-01	 -5.335295e-01	 7.500000e-01
-8.160706e-01	 5.335295e-01	 7.500000e-01
-8.160706e-01	 -5.335295e-01	 1.500000e+00
-8.160706e-01	 -5.335295e-01	 2.250000e+00
-8.160706e-01	 5.335295e-01	 1.500000e+00
-8.160706e-01	 5.335295e-01	 2.250000e+00
-8.160706e-01	 -5.335295e-01	 0
-8.160706e-01	 -5.335295e-01	 3.000000e+00
-8.160706e-01	 5.335295e-01	 0
-8.160706e-01	 5.335295e-01	 3.000000e+00
-7.951457e-01	 -5.198493e-01	 7.500000e-01
-7.951457e-01	 5.198493e-01	 7.500000e-01
-7.951457e-01	 -5.198493e-01	 0
-7.951457e-01	 -5.198493e-01	 1.500000e+00
-7.951457e-01	 -5.198493e-01	 2.250000e+00
-7.951457e-01	 -5.198493e-01	 3
-7.951457e-01	 5.198493e-01	 0
-7.951457e-01	 5.198493e-01	 1.500000e+00
-7.951457e-01	 5.198493e-01	 2.250000e+00
-7.951457e-01	 5.198493e-01	 3
-7.071068e-01	 -7.071068e-01	 0
-7.071068e-01	 -7.071068e-01	 3.750000e-01
-7.071068e-01	 -7.071068e-01	 7.500000e-01
-7.071068e-01	 -7.071068e-01	 1.125000e+00
-7.071068e-01	 -7.071068e-01	 1.500000e+00
-7.071068e-01	 -7.071068e-01	 1.875000e+00
-7.071068e-01	 -7.071068e-01	 2.250000e+00
-7.071068e-01	 -7.071068e-01	 2.625000e+00
-7.071068e-01	 -7.071068e-01	 3.000000e+00
-7.071068e-01	 7.071068e-01	 0
-7.071068e-01	 7.071068e-01	 3.750000e-01
-7.071068e-01	 7.071068e-01	 7.500000e-01
-7.071068e-01	 7.071068e-01	 1.125000e+00
-7.071068e-01	 7.071068e-01	 1.500000e+00
-7.071068e-01	 7.071068e-01	 1.875000e+00
-7.071068e-01	 7.071068e-01	 2.250000e+00
-7.071068e-01	 7.071068e-01	 2.625000e+00
-7.071068e-01	 7.071068e-01	 3.000000e+00
-6.982679e-01	 -6.982679e-01	 7.500000e-01
-6.982679e-01	 6.982679e-01	 7.500000e-01
-6.982679e-01	 -6.982679e-01	 0
-6.982679e-01	 -6.982679e-01	 2.250000e+00
-6.982679e-01	 -6.982679e-01	 3.000000e+00
-6.982679e-01	 6.982679e-01	 0
-6.982679e-01	 6.982679e-01	 2.250000e+00
-6.982679e-01	 6.982679e-01	 3.000000e+00
-6.982679e-01	 -6.982679e-01	 1.500000e+00
-6.982679e-01	 6.982679e-01	 1.500000e+00
-6.894291e-01	 -6.894291e-01	 3.750000e-01
-6.894291e-01	 -6.894291e-01	 2.625000e+00
-6.894291e-01	 -6.894291e-01	 0
-6.894291e-01	 -6.894291e-01	 1.500000e+00
-6.894291e-01	 -6.894291e-01	 2.250000e+00
-6.894291e-01	 -6.894291e-01	 3.000000e+00
-6.894291e-01	 6.894291e-01	 3.750000e-01
-6.894291e-01	 6.894291e-01	 2.625000e+00
-6.894291e-01	 -6.894291e-01	 1.875000e+00
-6.894291e-01	 6.894291e-01	 1.875000e+00
-6.894291e-01	 -6.894291e-01	 7.500000e-01
-6.894291e-01	 -6.894291e-01	 1.125000e+00
-6.894291e-01	 6.894291e-01	 0
-6.894291e-01	 6.894291e-01	 1.500000e+00
-6.894291e-01	 6.894291e-01	 2.250000e+00
-6.894291e-01	 6.894291e-01	 3.000000e+00
-6.894291e-01	 6.894291e-01	 7.500000e-01
-6.894291e-01	 6.894291e-01	 1.125000e+00
-6.805903e-01	 6.805903e-01	 7.500000e-01
-6.805903e-01	 -6.805903e-01	 7.500000e-01
-6.805903e-01	 -6.805903e-01	 0
-6.805903e-01	 -6.805903e-01	 1.500000e+00
-6.805903e-01	 -6.805903e-01	 3.000000e+00
-6.805903e-01	 6.805903e-01	 0
-6.805903e-01	 6.805903e-01	 1.500000e+00
-6.805903e-01	 6.805903e-01	 3.000000e+00
-6.805903e-01	 6.805903e-01	 2.250000e+00
-6.805903e-01	 -6.805903e-01	 2.250000e+00
-6.717514e-01	 -6.717514e-01	 2.625000e+00
-6.717514e-01	 6.717514e-01	 2.625000e+00
-6.717514e-01	 -6.717514e-01	 0
-6.717514e-01	 -6.717514e-01	 3.750000e-01
-6.717514e-01	 -6.717514e-01	 7.500000e-01
-6.717514e-01	 -6.717514e-01	 1.125000e+00
-6.717514e-01	 -6.717514e-01	 1.875000e+00
-6.717514e-01	 -6.717514e-01	 3.000000e+00
-6.717514e-01	 -6.717514e-01	 2.250000e+00
-6.717514e-01	 6.717514e-01	 1.500000e+00
-6.717514e-01	 6.717514e-01	 0
-6.717514e-01	 6.717514e-01	 3.750000e-01
-6.717514e-01	 6.717514e-01	 7.500000e-01
-6.717514e-01	 6.717514e-01	 1.125000e+00
-6.717514e-01	 6.717514e-01	 1.875000e+00
-6.717514e-01	 6.717514e-01	 3.000000e+00
-6.717514e-01	 -6.717514e-01	 1.500000e+00
-6.717514e-01	 6.717514e-01	 2.250000e+00
-5.472098e-01	 -8.369955e-01	 0
-5.472098e-01	 -8.369955e-01	 7.500000e-01
-5.472098e-01	 -8.369955e-01	 1.500000e+00
-5.472098e-01	 -8.369955e-01	 2.250000e+00
-5.472098e-01	 -8.369955e-01	 3
-5.472098e-01	 8.369955e-01	 0
-5.472098e-01	 8.369955e-01	 7.500000e-01
-5.472098e-01	 8.369955e-01	 1.500000e+00
-5.472098e-01	 8.369955e-01	 2.250000e+00
-5.472098e-01	 8.369955e-01	 3
-5.335295e-01	 -8.160706e-01	 1.500000e+00
-5.335295e-01	 -8.160706e-01	 2.250000e+00
-5.335295e-01	 8.160706e-01	 0
-5.335295e-01	 8.160706e-01	 3.000000e+00
[...]
POINT_DATA 832
VECTORS displacement float
0	 0	 5.656433e-12
3.020560e-11	 -8.336778e-18	 3.827460e-12
4.087063e-11	 -1.443748e-17	 6.912117e-18
3.020561e-11	 -1.717324e-17	 -3.827447e-12
1.004494e-17	 -1.632243e-17	 -5.656420e-12
-3.020559e-11	 -1.299082e-17	 -3.827449e-12
-4.087062e-11	 -8.642878e-18	 2.824330e-18
-3.020559e-11	 -4.155286e-18	 3.827455e-12
0	 0	 5.656427e-12
0	 0	 4.497268e-12
1.006644e-17	 -1.229121e-17	 -4.497256e-12
0	 0	 4.497263e-12
-4.107197e-11	 -4.902343e-18	 2.927010e-18
4.107198e-11	 -1.247627e-17	 6.809539e-18
3.261069e-11	 1.883201e-12	 6.723626e-18
0	 0	 4.534925e-12
5.588623e-17	 -9.342591e-18	 -4.534914e-12
0	 0	 4.534913e-12
-3.261070e-11	 1.883209e-12	 6.779125e-18
0	 0	 4.534926e-12
-3.438720e-17	 -9.469740e-18	 -4.534912e-12
0	 0	 4.534926e-12
3.261065e-11	 -1.883223e-12	 6.971731e-18
-3.261061e-11	 -1.883214e-12	 -1.179729e-18
4.119360e-11	 -1.053488e-17	 6.706388e-18
3.030721e-11	 -1.098259e-17	 -2.310580e-12
0	 0	 3.350594e-12
3.030721e-11	 -6.445062e-18	 2.310593e-12
-3.030719e-11	 -4.502280e-18	 -2.310582e-12
-3.030720e-11	 3.436679e-20	 2.310588e-12
0	 0	 3.350588e-12
1.009304e-17	 -8.309857e-18	 -3.350581e-12
-4.119359e-11	 -1.212523e-18	 3.030240e-18
1.011841e-17	 -4.352815e-18	 -2.201845e-12
-4.130513e-11	 2.457632e-18	 3.133628e-18
0	 0	 2.201857e-12
4.130514e-11	 -8.608202e-18	 6.603078e-18
0	 0	 2.201852e-12
0	 0	 2.772205e-12
0	 0	 2.772197e-12
5.519172e-17	 -5.088355e-18	 -2.772196e-12
0	 0	 2.772208e-12
0	 0	 2.772206e-12
-3.367176e-17	 -5.500414e-18	 -2.772193e-12
3.316955e-11	 7.737744e-13	 7.554237e-18
3.316960e-11	 -7.737925e-13	 5.725451e-18
-3.316952e-11	 7.737853e-13	 -1.834070e-19
-3.316960e-11	 -7.737822e-13	 6.198381e-18
0	 0	 1.039059e-12
3.025643e-11	 -4.569589e-18	 7.879567e-13
3.025643e-11	 -4.837568e-18	 -7.879439e-13
1.015194e-17	 -3.549080e-19	 -1.039047e-12
-3.025641e-11	 3.931563e-18	 -7.879457e-13
-4.132282e-11	 6.169120e-18	 3.236862e-18
-3.025642e-11	 4.198707e-18	 7.879524e-13
0	 0	 1.039055e-12
4.132283e-11	 -6.665056e-18	 6.499945e-18
5.420329e-17	 -8.580324e-19	 -1.012070e-12
0	 0	 1.012078e-12
0	 0	 1.012073e-12
-3.354859e-11	 -3.499691e-12	 5.619892e-18
0	 0	 1.012082e-12
-3.266152e-17	 -1.555909e-18	 -1.012066e-12
0	 0	 1.012078e-12
3.354858e-11	 -3.499702e-12	 4.728262e-18
-3.354850e-11	 3.499701e-12	 8.118799e-19
3.354854e-11	 3.499688e-12	 8.134529e-18
2.804191e-12	 -3.727396e-12	 -1.572528e-13
0	 0	 3.036119e-13
3.835481e-12	 -5.296415e-12	 4.525607e-18
6.942461e-17	 -1.083224e-18	 -3.036052e-13
-2.804062e-12	 3.727394e-12	 -1.572571e-13
-3.835383e-12	 5.296414e-12	 -3.470832e-18
-2.804100e-12	 3.727395e-12	 1.572508e-13
0	 0	 3.036006e-13
2.804153e-12	 -3.727395e-12	 1.572612e-13
2.804124e-12	 3.727386e-12	 1.572664e-13
-3.835488e-12	 -5.296404e-12	 8.994281e-18
-2.804161e-12	 -3.727387e-12	 1.572668e-13
0	 0	 3.036177e-13
3.835422e-12	 5.296401e-12	 8.672043e-18
-4.650654e-17	 -2.109137e-18	 -3.036002e-13
-2.804186e-12	 -3.727388e-12	 -1.572488e-13
0	 0	 3.036181e-13
2.804099e-12	 3.727385e-12	 -1.572490e-13
4.677198e-12	 7.438767e-12	 9.074361e-18
0	 0	 2.449487e-13
4.677257e-12	 -7.438781e-12	 3.918494e-18
-4.677159e-12	 7.438780e-12	 -2.862273e-18
0	 0	 2.449391e-13
0	 0	 2.449552e-13
-4.677264e-12	 -7.438770e-12	 8.590799e-18
0	 0	 2.449545e-13
6.966461e-17	 -1.181586e-18	 -2.449428e-13
-4.669907e-17	 -2.257676e-18	 -2.449372e-13
3.958052e-12	 -6.649857e-12	 -1.062244e-13
-3.957960e-12	 6.649856e-12	 1.062234e-13
0	 0	 1.858259e-13
3.958014e-12	 -6.649857e-12	 1.062306e-13
6.981502e-17	 -1.316717e-18	 -1.858209e-13
0	 0	 1.858180e-13
-3.958022e-12	 -6.649849e-12	 1.062358e-13
3.957960e-12	 6.649846e-12	 -1.062186e-13
0	 0	 1.858332e-13
3.957985e-12	 6.649847e-12	 1.062375e-13
0	 0	 1.858314e-13
5.512258e-12	 -9.558777e-12	 3.317021e-18
-3.957922e-12	 6.649856e-12	 -1.062274e-13
-3.958047e-12	 -6.649850e-12	 -1.062193e-13
-4.681535e-17	 -2.416482e-18	 -1.858146e-13
-5.512160e-12	 9.558775e-12	 -2.259346e-18
5.512199e-12	 9.558763e-12	 9.472120e-18
-5.512265e-12	 -9.558766e-12	 8.191825e-18
-4.692322e-17	 -2.584058e-18	 -1.256928e-13
6.995041e-17	 -1.445085e-18	 -1.256998e-13
0	 0	 1.257039e-13
0	 0	 1.256977e-13
0	 0	 1.257119e-13
0	 0	 1.257090e-13
-6.339821e-12	 1.165641e-11	 -1.655255e-18
6.339920e-12	 -1.165641e-11	 2.714418e-18
-6.339927e-12	 -1.165640e-11	 7.792068e-18
6.339860e-12	 1.165640e-11	 9.870630e-18
5.107361e-12	 -9.554532e-12	 -5.357926e-14
-5.107230e-12	 9.554530e-12	 -5.358099e-14
-5.107268e-12	 9.554530e-12	 5.357909e-14
-7.180413e-12	 1.378126e-11	 -1.045193e-18
5.107268e-12	 9.554521e-12	 -5.357145e-14
0	 0	 6.553878e-14
0	 0	 6.553432e-14
5.107322e-12	 -9.554531e-12	 5.358327e-14
7.180512e-12	 -1.378126e-11	 2.105836e-18
5.107294e-12	 9.554522e-12	 5.359173e-14
7.180452e-12	 1.378125e-11	 1.027339e-17
-7.180518e-12	 -1.378125e-11	 7.388120e-18
-5.107330e-12	 -9.554524e-12	 5.358802e-14
0	 0	 6.554752e-14
-5.107356e-12	 -9.554525e-12	 -5.357298e-14
0	 0	 6.554344e-14
6.997622e-17	 -1.625401e-18	 -6.553549e-14
-4.694874e-17	 -2.793482e-18	 -6.552782e-14
0	 0	 -4.153462e-12
-2.240596e-11	 -2.000969e-11	 2.416245e-19
4.843106e-17	 -7.506623e-18	 4.153461e-12
2.240603e-11	 2.000968e-11	 -3.720817e-18
0	 0	 -4.153468e-12
0	 0	 -4.153448e-12
-2.240600e-11	 2.000967e-11	 1.192065e-17
-3.160718e-17	 -7.299557e-18	 4.153471e-12
2.240596e-11	 -2.000968e-11	 9.286923e-18
0	 0	 -4.153452e-12
-2.101781e-11	 -2.221269e-11	 -4.298031e-19
-2.101785e-11	 2.221267e-11	 1.233753e-17
5.110932e-17	 -1.151344e-17	 2.544317e-12
2.101788e-11	 2.221268e-11	 -3.050152e-18
-3.339597e-17	 -1.011133e-17	 2.544328e-12
2.101780e-11	 -2.221268e-11	 8.870723e-18
0	 0	 -2.544318e-12
0	 0	 -2.544322e-12
0	 0	 -2.544304e-12
0	 0	 -2.544309e-12
-1.946604e-11	 -2.434552e-11	 -1.099379e-18
-1.946609e-11	 2.434550e-11	 1.275210e-17
0	 0	 -9.357759e-13
5.361336e-17	 -1.569303e-17	 9.357733e-13
1.946612e-11	 2.434550e-11	 -2.381359e-18
0	 0	 -9.357777e-13
0	 0	 -9.357608e-13
-3.507812e-17	 -1.303006e-17	 9.357851e-13
1.946604e-11	 -2.434551e-11	 8.456849e-18
0	 0	 -9.357669e-13
0	 0	 -5.535106e-12
-2.051901e-11	 -2.051904e-11	 -3.680185e-12
-2.751141e-11	 -2.751144e-11	 -5.796507e-18
-2.051901e-11	 -2.051906e-11	 3.680174e-12
5.816689e-18	 -3.971085e-17	 5.535095e-12
2.051902e-11	 2.051898e-11	 3.680176e-12
2.751141e-11	 2.751139e-11	 -1.984807e-18
2.051902e-11	 2.051901e-11	 -3.680180e-12
0	 0	 -5.535100e-12
0	 0	 -5.535080e-12
-2.051902e-11	 2.051901e-11	 -3.680161e-12
-2.751141e-11	 2.751140e-11	 1.639461e-17
-2.051902e-11	 2.051899e-11	 3.680193e-12
-3.028881e-18	 -2.946235e-17	 5.535111e-12
2.051901e-11	 -2.051905e-11	 3.680188e-12
2.751141e-11	 -2.751144e-11	 7.724492e-18
2.051901e-11	 -2.051903e-11	 -3.680172e-12
0	 0	 -5.535093e-12
-2.764561e-11	 -2.764566e-11	 -5.567415e-18
-2.764562e-11	 2.764561e-11	 1.621886e-17
0	 0	 -4.407762e-12
2.764563e-11	 2.764560e-11	 -2.213681e-18
0	 0	 -4.407758e-12
0	 0	 -4.407738e-12
2.764562e-11	 -2.764565e-11	 7.900036e-18
0	 0	 -4.407749e-12
8.514932e-18	 -4.251207e-17	 4.407752e-12
-4.822511e-18	 -3.131639e-17	 4.407768e-12
-2.058499e-11	 -2.058502e-11	 -2.241099e-12
2.058500e-11	 2.058498e-11	 -2.241095e-12
0	 0	 -3.290735e-12
1.119720e-17	 -4.525350e-17	 3.290725e-12
2.773200e-11	 2.773196e-11	 -2.440820e-18
0	 0	 -3.290731e-12
-2.058500e-11	 2.058499e-11	 -2.241075e-12
2.058499e-11	 -2.058501e-11	 -2.241086e-12
2.058501e-11	 2.058496e-11	 2.241090e-12
2.058499e-11	 -2.058503e-11	 2.241102e-12
-2.773198e-11	 -2.773203e-11	 -5.340004e-18
-2.058499e-11	 -2.058504e-11	 2.241088e-12
0	 0	 -3.290711e-12
-6.611458e-18	 -3.314634e-17	 3.290741e-12
2.773198e-11	 -2.773202e-11	 8.074913e-18
0	 0	 -3.290723e-12
-2.773199e-11	 2.773197e-11	 1.604369e-17
-2.058500e-11	 2.058497e-11	 2.241107e-12
-2.781680e-11	 2.781678e-11	 1.586827e-17
-2.781678e-11	 -2.781683e-11	 -5.112271e-18
0	 0	 -2.173414e-12
1.386787e-17	 -4.797614e-17	 2.173404e-12
0	 0	 -2.173411e-12
0	 0	 -2.173391e-12
-8.383516e-18	 -3.496295e-17	 2.173420e-12
0	 0	 -2.173401e-12
2.781678e-11	 -2.781683e-11	 8.250026e-18
2.781680e-11	 2.781676e-11	 -2.668279e-18
2.056026e-11	 2.056023e-11	 -7.972039e-13
2.056024e-11	 -2.056027e-11	 -7.971937e-13
0	 0	 -1.043356e-12
-2.056024e-11	 -2.056027e-11	 -7.972065e-13
-2.784426e-11	 -2.784431e-11	 -4.882572e-18
-2.056023e-11	 -2.056030e-11	 7.971969e-13
2.056026e-11	 2.056021e-11	 7.971980e-13
0	 0	 -1.043353e-12
2.784428e-11	 2.784424e-11	 -2.897755e-18
-1.018423e-17	 -3.677980e-17	 1.043363e-12
0	 0	 -1.043334e-12
-2.056025e-11	 2.056024e-11	 -7.971842e-13
-2.784427e-11	 2.784425e-11	 1.569152e-17
-2.056026e-11	 2.056022e-11	 7.972150e-13
2.056024e-11	 -2.056029e-11	 7.972111e-13
0	 0	 -1.043344e-12
1.659234e-17	 -5.069798e-17	 1.043347e-12
2.784426e-11	 -2.784430e-11	 8.426570e-18
0	 0	 -4.153477e-12
-2.000969e-11	 -2.240605e-11	 -1.084007e-17
-1.586791e-17	 -7.402373e-17	 4.153458e-12
2.000967e-11	 2.240595e-11	 -7.271922e-19
0	 0	 -4.153462e-12
0	 0	 -4.153441e-12
-2.000967e-11	 2.240597e-11	 2.031526e-17
1.548979e-17	 -5.569540e-17	 4.153478e-12
2.000969e-11	 -2.240605e-11	 5.878823e-18
0	 0	 -4.153462e-12
-1.452736e-17	 -7.503420e-17	 2.544313e-12
2.221267e-11	 2.101780e-11	 -2.037577e-18
0	 0	 -2.544298e-12
0	 0	 -2.544315e-12
1.344001e-17	 -5.720046e-17	 2.544332e-12
2.221269e-11	 -2.101790e-11	 6.924672e-18
-2.221269e-11	 -2.101790e-11	 -9.528874e-18
0	 0	 -2.544330e-12
0	 0	 -2.544319e-12
-2.221267e-11	 2.101782e-11	 1.926911e-17
-2.434550e-11	 1.946606e-11	 1.822258e-17
-2.434552e-11	 -1.946614e-11	 -8.219965e-18
0	 0	 -9.357844e-13
-1.293939e-17	 -7.570530e-17	 9.357694e-13
2.434550e-11	 1.946604e-11	 -3.345659e-18
0	 0	 -9.357775e-13
0	 0	 -9.357550e-13
1.127409e-17	 -5.856837e-17	 9.357884e-13
2.434552e-11	 -1.946614e-11	 7.970877e-18
0	 0	 -9.357695e-13
-3.727397e-12	 2.804059e-12	 -1.572645e-13
-3.727376e-12	 -2.804178e-12	 -1.572363e-13
0	 0	 3.035897e-13
-5.296415e-12	 3.835377e-12	 -1.231077e-17
-4.127918e-18	 -6.385027e-17	 -3.036114e-13
3.727389e-12	 -2.804178e-12	 -1.572591e-13
0	 0	 3.036039e-13
0	 0	 3.036300e-13
-5.296398e-12	 -3.835466e-12	 2.216145e-17
1.744276e-17	 -6.501532e-17	 -3.035907e-13
3.727409e-12	 2.804057e-12	 -1.572454e-13
5.296423e-12	 3.835374e-12	 5.166500e-18
3.727399e-12	 2.804093e-12	 1.572571e-13
0	 0	 3.036060e-13
-3.727395e-12	 2.804094e-12	 1.572406e-13
5.296409e-12	 -3.835467e-12	 -2.305237e-18
3.727392e-12	 -2.804143e-12	 1.572536e-13
-3.727386e-12	 -2.804143e-12	 1.572792e-13
-6.627087e-18	 -6.306651e-17	 -2.449494e-13
1.759050e-17	 -6.511506e-17	 -2.449286e-13
-7.438782e-12	 4.677153e-12	 -1.173525e-17
0	 0	 2.449285e-13
7.438773e-12	 -4.677242e-12	 -2.881474e-18
0	 0	 2.449410e-13
0	 0	 2.449670e-13
-7.438765e-12	 -4.677242e-12	 2.151361e-17
7.438790e-12	 4.677150e-12	 5.814482e-18
0	 0	 2.449448e-13
9.558767e-12	 -5.512243e-12	 -3.452372e-18
9.558786e-12	 5.512152e-12	 6.460850e-18
-6.649838e-12	 -3.958040e-12	 -1.062083e-13
6.649862e-12	 3.957954e-12	 1.062301e-13
0	 0	 1.858077e-13
-6.649858e-12	 3.957955e-12	 1.062134e-13
0	 0	 1.858186e-13
-9.063230e-18	 -6.220896e-17	 -1.858278e-13
0	 0	 1.858444e-13
-6.649848e-12	 -3.958004e-12	 1.062490e-13
1.770619e-17	 -6.518786e-17	 -1.858069e-13
0	 0	 1.858241e-13
-6.649863e-12	 3.957921e-12	 -1.062351e-13
6.649846e-12	 -3.958037e-12	 -1.062310e-13
-9.558779e-12	 5.512155e-12	 -1.116498e-17
-9.558761e-12	 -5.512244e-12	 2.086729e-17
6.649871e-12	 3.957918e-12	 -1.062161e-13
6.649851e-12	 -3.958003e-12	 1.062235e-13
-1.148378e-17	 -6.134550e-17	 -1.257069e-13
1.165640e-11	 -6.339904e-12	 -4.024035e-18
1.165642e-11	 6.339814e-12	 7.108160e-18
0	 0	 1.257226e-13
0	 0	 1.257041e-13
1.782919e-17	 -6.524413e-17	 -1.256860e-13
0	 0	 1.256876e-13
0	 0	 1.256969e-13
-1.165641e-11	 6.339817e-12	 -1.059396e-17
-1.165640e-11	 -6.339906e-12	 2.022002e-17
-9.554541e-12	 5.107231e-12	 -5.358898e-14
0	 0	 6.552449e-14
9.554515e-12	 -5.107344e-12	 -5.358603e-14
0	 0	 6.553215e-14
-1.388173e-17	 -6.036793e-17	 -6.554294e-14
0	 0	 6.555771e-14
0	 0	 6.554101e-14
-9.554513e-12	 -5.107348e-12	 -5.356349e-14
9.554547e-12	 5.107227e-12	 -5.356998e-14
9.554537e-12	 5.107262e-12	 5.358623e-14
-9.554534e-12	 5.107264e-12	 5.356932e-14
-1.378127e-11	 7.180409e-12	 -1.001727e-17
1.378125e-11	 -7.180494e-12	 -4.601457e-18
9.554523e-12	 -5.107311e-12	 5.357646e-14
1.793949e-17	 -6.525935e-17	 -6.552203e-14
-9.554523e-12	 -5.107313e-12	 5.360191e-14
1.378127e-11	 7.180405e-12	 7.758281e-18
-1.378125e-11	 -7.180497e-12	 1.957005e-17
1.883216e-12	 3.261062e-11	 -1.161425e-17
1.883224e-12	 -3.261069e-11	 2.224431e-17
0	 0	 4.534901e-12
1.083088e-17	 -1.881772e-17	 -4.534922e-12
0	 0	 4.534910e-12
0	 0	 4.534941e-12
1.519657e-17	 -6.051572e-17	 -4.534902e-12
0	 0	 4.534917e-12
-1.883201e-12	 -3.261065e-11	 -5.207043e-18
-1.883203e-12	 3.261061e-11	 5.296169e-18
-7.737840e-13	 3.316953e-11	 -1.129622e-17
0	 0	 2.772184e-12
0	 0	 2.772192e-12
-7.737719e-13	 -3.316960e-11	 2.103404e-17
7.737950e-13	 3.316951e-11	 6.506193e-18
0	 0	 2.772222e-12
0	 0	 2.772201e-12
7.737899e-13	 -3.316956e-11	 -5.524048e-18
1.628759e-17	 -6.044095e-17	 -2.772184e-12
4.209511e-18	 -1.765650e-17	 -2.772205e-12
1.737813e-17	 -6.031139e-17	 -1.012059e-12
0	 0	 1.012060e-12
-2.459800e-18	 -1.644074e-17	 -1.012080e-12
0	 0	 1.012067e-12
0	 0	 1.012095e-12
0	 0	 1.012078e-12
3.499697e-12	 -3.354854e-11	 -5.842568e-18
-3.499701e-12	 3.354852e-11	 -1.097664e-17
-3.499685e-12	 -3.354858e-11	 1.982212e-17
3.499709e-12	 3.354850e-11	 7.717854e-18
0	 0	 5.656410e-12
4.421920e-18	 3.020559e-11	 3.827440e-12
8.775152e-18	 4.087062e-11	 -1.039640e-17
1.239376e-17	 3.020561e-11	 -3.827460e-12
1.475572e-17	 3.013340e-17	 -5.656430e-12
1.482499e-17	 -3.020555e-11	 -3.827459e-12
1.209446e-17	 -4.087058e-11	 -7.773720e-18
6.853705e-18	 -3.020557e-11	 3.827443e-12
0	 0	 5.656414e-12
0	 0	 4.497246e-12
1.155649e-17	 3.024974e-17	 -4.497267e-12
0	 0	 4.497251e-12
1.033284e-17	 -4.107193e-11	 -7.498126e-18
6.012860e-18	 4.107198e-11	 -1.067218e-17
3.292615e-18	 4.119360e-11	 -1.094255e-17
5.969355e-18	 3.030721e-11	 -2.310594e-12
0	 0	 3.350572e-12
1.399678e-18	 3.030720e-11	 2.310573e-12
9.634824e-18	 -3.030716e-11	 -2.310592e-12
5.065788e-18	 -3.030717e-11	 2.310578e-12
0	 0	 3.350577e-12
8.401651e-18	 3.028160e-17	 -3.350593e-12
8.591955e-18	 -4.119355e-11	 -7.227842e-18
5.264503e-18	 3.029224e-17	 -2.201857e-12
6.864056e-18	 -4.130509e-11	 -6.956555e-18
0	 0	 2.201836e-12
5.844034e-19	 4.130514e-11	 -1.121393e-17
0	 0	 2.201842e-12
0	 0	 1.039039e-12
-1.604361e-18	 3.025642e-11	 7.879366e-13
-4.138354e-19	 3.025643e-11	 -7.879593e-13
2.092421e-18	 3.019887e-17	 -1.039060e-12
4.481996e-18	 -3.025638e-11	 -7.879566e-13
5.118662e-18	 -4.132278e-11	 -6.680785e-18
3.292205e-18	 -3.025639e-11	 7.879429e-13
0	 0	 1.039046e-12
-2.155717e-18	 4.132282e-11	 -1.148989e-17
1.244883e-17	 -4.132286e-11	 1.889748e-17
0	 0	 1.039073e-12
6.913759e-18	 -3.025644e-11	 7.879696e-13
1.619163e-17	 -3.025646e-11	 -7.879325e-13
1.713913e-17	 -5.044017e-17	 -1.039038e-12
1.549178e-17	 3.025637e-11	 -7.879384e-13
1.179385e-17	 4.132278e-11	 8.046260e-18
6.213171e-18	 3.025640e-11	 7.879552e-13
0	 0	 1.039058e-12
0	 0	 2.201871e-12
1.232089e-17	 -4.130517e-11	 1.939161e-17
0	 0	 2.201854e-12
1.630361e-17	 -5.037193e-17	 -2.201836e-12
1.073948e-17	 4.130510e-11	 7.552057e-18
1.547326e-17	 -5.029809e-17	 -3.350572e-12
9.696640e-18	 4.119356e-11	 7.058811e-18
0	 0	 3.350608e-12
6.798812e-18	 -3.030722e-11	 2.310607e-12
1.336710e-17	 3.030715e-11	 -2.310575e-12
5.015475e-18	 3.030718e-11	 2.310590e-12
0	 0	 3.350589e-12
1.218875e-17	 -4.119363e-11	 1.988488e-17
1.514992e-17	 -3.030724e-11	 -2.310568e-12
1.204506e-17	 -4.107201e-11	 2.037745e-17
8.643223e-18	 4.107194e-11	 6.566265e-18
0	 0	 4.497282e-12
1.462728e-17	 -5.021392e-17	 -4.497246e-12
0	 0	 4.497263e-12
0	 0	 5.656447e-12
6.680540e-18	 -3.020561e-11	 3.827475e-12
1.191867e-17	 -4.087065e-11	 2.086982e-17
1.409542e-17	 -3.020564e-11	 -3.827434e-12
1.378789e-17	 -5.012217e-17	 -5.656410e-12
1.122293e-17	 3.020555e-11	 -3.827442e-12
7.581841e-18	 4.087058e-11	 6.073835e-18
3.807749e-18	 3.020557e-11	 3.827456e-12
0	 0	 5.656426e-12
3.499698e-12	 3.354857e-11	 -1.186489e-17
-3.499686e-12	 -3.354850e-11	 -6.901820e-18
3.499711e-12	 -3.354858e-11	 1.717411e-17
-3.499685e-12	 3.354852e-11	 8.418456e-18
0	 0	 1.012059e-12
0	 0	 1.012066e-12
0	 0	 1.012091e-12
1.839004e-17	 -3.784733e-17	 -1.012060e-12
0	 0	 1.012079e-12
8.766967e-18	 5.069955e-17	 -1.012082e-12
1.643778e-17	 -3.741721e-17	 -2.772185e-12
8.024852e-18	 5.100609e-17	 -2.772207e-12
-7.737738e-13	 3.316954e-11	 7.766182e-18
0	 0	 2.772186e-12
0	 0	 2.772190e-12
7.737866e-13	 3.316959e-11	 -1.098997e-17
-7.737753e-13	 -3.316952e-11	 -7.776998e-18
0	 0	 2.772218e-12
0	 0	 2.772204e-12
7.737970e-13	 -3.316959e-11	 1.782765e-17
1.883219e-12	 -3.261061e-11	 -8.656753e-18
1.883221e-12	 3.261063e-11	 7.114899e-18
0	 0	 4.534905e-12
7.379317e-18	 5.085889e-17	 -4.534924e-12
0	 0	 4.534907e-12
0	 0	 4.534937e-12
1.450838e-17	 -3.695970e-17	 -4.534903e-12
0	 0	 4.534921e-12
-1.883208e-12	 3.261068e-11	 -1.011046e-17
-1.883201e-12	 -3.261068e-11	 1.848017e-17
1.378127e-11	 7.180480e-12	 -1.278231e-17
-1.378123e-11	 -7.180445e-12	 -5.772205e-18
9.554534e-12	 5.107304e-12	 5.356642e-14
2.424096e-17	 2.452366e-17	 -6.554517e-14
9.554542e-12	 -5.107300e-12	 5.359558e-14
1.378128e-11	 -7.180473e-12	 1.462514e-17
-1.378125e-11	 7.180442e-12	 8.767297e-18
-9.554524e-12	 5.107283e-12	 5.358794e-14
9.554547e-12	 5.107318e-12	 -5.359148e-14
-9.554502e-12	 -5.107272e-12	 -5.358767e-14
-9.554515e-12	 -5.107285e-12	 5.357562e-14
0	 0	 6.552165e-14
0	 0	 6.553157e-14
2.329507e-17	 -2.237100e-17	 -6.552388e-14
0	 0	 6.555142e-14
-9.554511e-12	 5.107271e-12	 -5.356995e-14
0	 0	 6.554313e-14
9.554554e-12	 -5.107312e-12	 -5.356679e-14
1.165642e-11	 6.339887e-12	 -1.265412e-17
1.165643e-11	 -6.339881e-12	 1.473918e-17
0	 0	 1.257156e-13
0	 0	 1.257070e-13
2.096701e-17	 2.330093e-17	 -1.257094e-13
0	 0	 1.256861e-13
0	 0	 1.256956e-13
-1.165639e-11	 -6.339855e-12	 -5.900372e-18
-1.165640e-11	 6.339850e-12	 8.652610e-18
2.217711e-17	 -2.191941e-17	 -1.256879e-13
-6.649849e-12	 3.957974e-12	 1.062333e-13
9.558779e-12	 5.512225e-12	 -1.252877e-17
-6.649834e-12	 -3.957966e-12	 -1.062338e-13
9.558792e-12	 -5.512219e-12	 1.485254e-17
-6.649838e-12	 3.957963e-12	 -1.062157e-13
6.649876e-12	 -3.958002e-12	 -1.062123e-13
0	 0	 1.858074e-13
6.649857e-12	 3.957995e-12	 1.062128e-13
1.775276e-17	 2.203142e-17	 -1.858306e-13
0	 0	 1.858166e-13
2.106968e-17	 -2.146361e-17	 -1.858088e-13
0	 0	 1.858367e-13
6.649865e-12	 -3.957991e-12	 1.062416e-13
0	 0	 1.858277e-13
6.649866e-12	 3.958007e-12	 -1.062373e-13
-6.649843e-12	 -3.957978e-12	 1.062213e-13
-9.558754e-12	 -5.512194e-12	 -6.025789e-18
-9.558762e-12	 5.512188e-12	 8.538690e-18
0	 0	 2.449295e-13
7.438781e-12	 4.677223e-12	 -1.240423e-17
-7.438761e-12	 -4.677194e-12	 -6.150408e-18
0	 0	 2.449383e-13
0	 0	 2.449585e-13
-7.438766e-12	 4.677187e-12	 8.425069e-18
0	 0	 2.449492e-13
7.438794e-12	 -4.677217e-12	 1.496562e-17
1.451781e-17	 2.075089e-17	 -2.449525e-13
1.994560e-17	 -2.100532e-17	 -2.449305e-13
3.727393e-12	 2.804134e-12	 1.572423e-13
3.727401e-12	 -2.804129e-12	 1.572707e-13
-5.296399e-12	 3.835411e-12	 8.311292e-18
-3.727387e-12	 2.804113e-12	 1.572619e-13
0	 0	 3.035921e-13
5.296413e-12	 3.835446e-12	 -1.227632e-17
1.125675e-17	 1.940416e-17	 -3.036149e-13
-3.727378e-12	 -2.804108e-12	 -1.572631e-13
-5.296397e-12	 -3.835419e-12	 -6.278300e-18
-3.727384e-12	 -2.804118e-12	 1.572501e-13
0	 0	 3.036005e-13
0	 0	 3.036208e-13
5.296426e-12	 -3.835440e-12	 1.507877e-17
1.882475e-17	 -2.054396e-17	 -3.035926e-13
-3.727377e-12	 2.804102e-12	 -1.572447e-13
0	 0	 3.036112e-13
3.727399e-12	 2.804144e-12	 -1.572664e-13
3.727411e-12	 -2.804140e-12	 -1.572411e-13
0	 0	 -9.357905e-13
4.659329e-17	 -2.160623e-17	 9.357663e-13
-2.434547e-11	 1.946607e-11	 -3.938318e-18
0	 0	 -9.357770e-13
0	 0	 -9.357636e-13
3.016997e-17	 -6.901614e-18	 9.357859e-13
-2.434550e-11	 -1.946611e-11	 8.739107e-18