# vtk DataFile Version 3.0
Unstructured Grid Example
ASCII
DATASET UNSTRUCTURED_GRID
POINTS 1641 float
-9.500000e-01	 0	 0
-9.500000e-01	 0	 3.750000e-01
-9.500000e-01	 0	 1.125000e+00
-9.500000e-01	 0	 1.500000e+00
-9.500000e-01	 0	 1.875000e+00
-9.500000e-01	 0	 2.250000e+00
-9.500000e-01	 0	 2.625000e+00
-9.500000e-01	 0	 3
-9.500000e-01	 0	 7.500000e-01
-9.341401e-01	 -1.728649e-01	 1.500000e+00
-9.341401e-01	 -1.728649e-01	 0
-9.341401e-01	 -1.728649e-01	 3.000000e+00
-9.341401e-01	 1.728649e-01	 2.250000e+00
-9.341401e-01	 1.728649e-01	 0
-9.341401e-01	 1.728649e-01	 1.500000e+00
-9.341401e-01	 1.728649e-01	 3.000000e+00
-9.341401e-01	 -1.728649e-01	 7.500000e-01
-9.341401e-01	 -1.728649e-01	 2.250000e+00
-9.341401e-01	 1.728649e-01	 7.500000e-01
-8.832989e-01	 -3.496900e-01	 1.125000e+00
-8.832989e-01	 -3.496900e-01	 1.875000e+00
-8.832989e-01	 -3.496900e-01	 2.625000e+00
-8.832989e-01	 -3.496900e-01	 2.250000e+00
-8.832989e-01	 3.496900e-01	 1.125000e+00
-8.832989e-01	 -3.496900e-01	 0
-8.832989e-01	 -3.496900e-01	 3.000000e+00
-8.832989e-01	 -3.496900e-01	 3.750000e-01
-8.832989e-01	 -3.496900e-01	 7.500000e-01
-8.832989e-01	 3.496900e-01	 3.750000e-01
-8.832989e-01	 3.496900e-01	 7.500000e-01
-8.832989e-01	 3.496900e-01	 2.250000e+00
-8.832989e-01	 3.496900e-01	 2.625000e+00
-8.832989e-01	 3.496900e-01	 0
-8.832989e-01	 3.496900e-01	 1.875000e+00
-8.832989e-01	 3.496900e-01	 3.000000e+00
-8.832989e-01	 -3.496900e-01	 1.500000e+00
-8.832989e-01	 3.496900e-01	 1.500000e+00
-8.787500e-01	 0	 2.250000e+00
-8.787500e-01	 0	 0
-8.787500e-01	 0	 1.500000e+00
-8.787500e-01	 0	 3
-8.787500e-01	 0	 7.500000e-01
-8.149622e-01	 -3.223238e-01	 7.500000e-01
-8.149622e-01	 3.223238e-01	 7.500000e-01
-8.149622e-01	 -3.223238e-01	 2.250000e+00
-8.149622e-01	 3.223238e-01	 2.250000e+00
-8.149622e-01	 -3.223238e-01	 0
-8.149622e-01	 -3.223238e-01	 1.500000e+00
-8.149622e-01	 -3.223238e-01	 3
-8.149622e-01	 3.223238e-01	 1.500000e+00
-8.149622e-01	 3.223238e-01	 0
-8.149622e-01	 3.223238e-01	 3
-8.075000e-01	 0	 7.500000e-01
-8.075000e-01	 0	 2.250000e+00
-8.075000e-01	 0	 3.750000e-01
-8.075000e-01	 0	 1.875000e+00
-8.075000e-01	 0	 2.625000e+00
-8.075000e-01	 0	 0
-8.075000e-01	 0	 1.125000e+00
-8.075000e-01	 0	 1.500000e+00
-8.075000e-01	 0	 3
-7.951457e-01	 -5.198493e-01	 7.500000e-01
-7.951457e-01	 5.198493e-01	 7.500000e-01
-7.951457e-01	 -5.198493e-01	 0
-7.951457e-01	 -5.198493e-01	 1.500000e+00
-7.951457e-01	 -5.198493e-01	 2.250000e+00
-7.951457e-01	 -5.198493e-01	 3
-7.951457e-01	 5.198493e-01	 0
-7.951457e-01	 5.198493e-01	 1.500000e+00
-7.951457e-01	 5.198493e-01	 2.250000e+00
-7.951457e-01	 5.198493e-01	 3
-7.894916e-01	 -1.451644e-01	 7.500000e-01
-7.894916e-01	 1.451644e-01	 7.500000e-01
-7.894916e-01	 1.451644e-01	 0
-7.894916e-01	 1.451644e-01	 3
-7.894916e-01	 -1.451644e-01	 0
-7.894916e-01	 -1.451644e-01	 1.500000e+00
-7.894916e-01	 -1.451644e-01	 2.250000e+00
-7.894916e-01	 -1.451644e-01	 3
-7.894916e-01	 1.451644e-01	 1.500000e+00
-7.894916e-01	 1.451644e-01	 2.250000e+00
-7.430021e-01	 -2.929055e-01	 1.500000e+00
-7.430021e-01	 2.929055e-01	 1.500000e+00
-7.430021e-01	 -2.929055e-01	 2.250000e+00
-7.430021e-01	 -2.929055e-01	 0
-7.430021e-01	 -2.929055e-01	 3.000000e+00
-7.430021e-01	 2.929055e-01	 3.750000e-01
-7.430021e-01	 -2.929055e-01	 3.750000e-01
-7.430021e-01	 -2.929055e-01	 1.125000e+00
-7.430021e-01	 -2.929055e-01	 1.875000e+00
-7.430021e-01	 -2.929055e-01	 2.625000e+00
-7.430021e-01	 2.929055e-01	 1.125000e+00
-7.430021e-01	 2.929055e-01	 0
-7.430021e-01	 2.929055e-01	 1.875000e+00
-7.430021e-01	 2.929055e-01	 2.250000e+00
-7.430021e-01	 2.929055e-01	 2.625000e+00
-7.430021e-01	 2.929055e-01	 3.000000e+00
-7.430021e-01	 2.929055e-01	 7.500000e-01
-7.430021e-01	 -2.929055e-01	 7.500000e-01
-7.362500e-01	 0	 0
-7.362500e-01	 0	 7.500000e-01
-7.362500e-01	 0	 1.500000e+00
-7.362500e-01	 0	 2.250000e+00
-7.362500e-01	 0	 3
-6.717514e-01	 -6.717514e-01	 2.625000e+00
-6.717514e-01	 6.717514e-01	 2.625000e+00
-6.717514e-01	 -6.717514e-01	 0
-6.717514e-01	 -6.717514e-01	 3.750000e-01
-6.717514e-01	 -6.717514e-01	 7.500000e-01
-6.717514e-01	 -6.717514e-01	 1.125000e+00
-6.717514e-01	 -6.717514e-01	 1.875000e+00
-6.717514e-01	 -6.717514e-01	 3.000000e+00
-6.717514e-01	 -6.717514e-01	 2.250000e+00
-6.717514e-01	 6.717514e-01	 1.500000e+00
-6.717514e-01	 6.717514e-01	 0
-6.717514e-01	 6.717514e-01	 3.750000e-01
-6.717514e-01	 6.717514e-01	 7.500000e-01
-6.717514e-01	 6.717514e-01	 1.125000e+00
-6.717514e-01	 6.717514e-01	 1.875000e+00
-6.717514e-01	 6.717514e-01	 3.000000e+00
-6.717514e-01	 -6.717514e-01	 1.500000e+00
-6.717514e-01	 6.717514e-01	 2.250000e+00
-6.682985e-01	 -2.618048e-01	 0
-6.682985e-01	 -2.618048e-01	 1.500000e+00
-6.682985e-01	 -2.618048e-01	 3
-6.682985e-01	 -2.618048e-01	 7.500000e-01
-6.682985e-01	 -2.618048e-01	 2.250000e+00
-6.682985e-01	 2.618048e-01	 7.500000e-01
-6.682985e-01	 2.618048e-01	 2.250000e+00
-6.682985e-01	 2.618048e-01	 0
-6.682985e-01	 2.618048e-01	 1.500000e+00
-6.682985e-01	 2.618048e-01	 3
-6.665713e-01	 -4.348738e-01	 2.250000e+00
-6.665713e-01	 -4.348738e-01	 7.500000e-01
-6.665713e-01	 4.348738e-01	 7.500000e-01
-6.665713e-01	 4.348738e-01	 2.250000e+00
-6.665713e-01	 -4.348738e-01	 0
-6.665713e-01	 -4.348738e-01	 3
-6.665713e-01	 4.348738e-01	 0
-6.665713e-01	 4.348738e-01	 1.500000e+00
-6.665713e-01	 4.348738e-01	 3
-6.665713e-01	 -4.348738e-01	 1.500000e+00
-6.650000e-01	 0	 7.500000e-01
-6.650000e-01	 0	 0
-6.650000e-01	 0	 3.750000e-01
-6.650000e-01	 0	 1.125000e+00
-6.650000e-01	 0	 1.500000e+00
-6.650000e-01	 0	 1.875000e+00
-6.650000e-01	 0	 2.625000e+00
-6.650000e-01	 0	 3
-6.650000e-01	 0	 2.250000e+00
-6.383743e-01	 -1.144482e-01	 0
-6.383743e-01	 -1.144482e-01	 3.000000e+00
-6.383743e-01	 -1.144482e-01	 7.500000e-01
-6.383743e-01	 -1.144482e-01	 1.500000e+00
-6.383743e-01	 -1.144482e-01	 2.250000e+00
-6.383743e-01	 1.144482e-01	 7.500000e-01
-6.383743e-01	 1.144482e-01	 1.500000e+00
-6.383743e-01	 1.144482e-01	 0
-6.383743e-01	 1.144482e-01	 2.250000e+00
-6.383743e-01	 1.144482e-01	 3.000000e+00
-6.189903e-01	 -6.189903e-01	 0
-6.189903e-01	 -6.189903e-01	 1.500000e+00
-6.189903e-01	 -6.189903e-01	 3.000000e+00
-6.189903e-01	 6.189903e-01	 2.250000e+00
-6.189903e-01	 6.189903e-01	 0
-6.189903e-01	 6.189903e-01	 1.500000e+00
-6.189903e-01	 6.189903e-01	 3.000000e+00
-6.189903e-01	 -6.189903e-01	 2.250000e+00
-6.189903e-01	 -6.189903e-01	 7.500000e-01
-6.189903e-01	 6.189903e-01	 7.500000e-01
-5.937500e-01	 0	 0
-5.937500e-01	 0	 7.500000e-01
-5.937500e-01	 0	 1.500000e+00
-5.937500e-01	 0	 2.250000e+00
-5.937500e-01	 0	 3
-5.917666e-01	 2.294176e-01	 1.875000e+00
-5.917666e-01	 2.294176e-01	 2.250000e+00
-5.917666e-01	 -2.294176e-01	 2.250000e+00
-5.917666e-01	 -2.294176e-01	 0
-5.917666e-01	 -2.294176e-01	 2.625000e+00
-5.917666e-01	 -2.294176e-01	 3
-5.917666e-01	 -2.294176e-01	 1.500000e+00
-5.917666e-01	 -2.294176e-01	 1.875000e+00
-5.917666e-01	 2.294176e-01	 0
-5.917666e-01	 2.294176e-01	 2.625000e+00
-5.917666e-01	 2.294176e-01	 3
-5.917666e-01	 2.294176e-01	 1.500000e+00
-5.917666e-01	 -2.294176e-01	 3.750000e-01
-5.917666e-01	 -2.294176e-01	 7.500000e-01
-5.917666e-01	 -2.294176e-01	 1.125000e+00
-5.917666e-01	 2.294176e-01	 7.500000e-01
-5.917666e-01	 2.294176e-01	 1.125000e+00
-5.917666e-01	 2.294176e-01	 3.750000e-01
-5.620800e-01	 5.620800e-01	 1.125000e+00
-5.620800e-01	 -5.620800e-01	 1.125000e+00
-5.620800e-01	 -5.620800e-01	 3.750000e-01
-5.620800e-01	 -5.620800e-01	 7.500000e-01
-5.620800e-01	 -5.620800e-01	 1.875000e+00
-5.620800e-01	 -5.620800e-01	 2.625000e+00
-5.620800e-01	 5.620800e-01	 3.750000e-01
-5.620800e-01	 5.620800e-01	 7.500000e-01
-5.620800e-01	 5.620800e-01	 1.875000e+00
-5.620800e-01	 -5.620800e-01	 0
-5.620800e-01	 -5.620800e-01	 1.500000e+00
-5.620800e-01	 -5.620800e-01	 2.250000e+00
-5.620800e-01	 -5.620800e-01	 3
-5.620800e-01	 5.620800e-01	 0
-5.620800e-01	 5.620800e-01	 1.500000e+00
-5.620800e-01	 5.620800e-01	 2.250000e+00
-5.620800e-01	 5.620800e-01	 3
-5.620800e-01	 5.620800e-01	 2.625000e+00
-5.250231e-01	 -3.396892e-01	 7.500000e-01
-5.250231e-01	 3.396892e-01	 1.500000e+00
-5.250231e-01	 3.396892e-01	 2.250000e+00
-5.250231e-01	 3.396892e-01	 7.500000e-01
-5.250231e-01	 -3.396892e-01	 2.250000e+00
-5.250231e-01	 -3.396892e-01	 0
-5.250231e-01	 -3.396892e-01	 1.500000e+00
-5.250231e-01	 -3.396892e-01	 3.000000e+00
-5.250231e-01	 3.396892e-01	 0
-5.250231e-01	 3.396892e-01	 3.000000e+00
-5.225000e-01	 0	 1.500000e+00
-5.225000e-01	 0	 2.250000e+00
-5.225000e-01	 0	 0
-5.225000e-01	 0	 3.750000e-01
-5.225000e-01	 0	 7.500000e-01
-5.225000e-01	 0	 1.125000e+00
-5.225000e-01	 0	 1.875000e+00
-5.225000e-01	 0	 2.625000e+00
-5.225000e-01	 0	 3
-5.198493e-01	 7.951457e-01	 7.500000e-01
-5.198493e-01	 -7.951457e-01	 7.500000e-01
-5.198493e-01	 -7.951457e-01	 0
-5.198493e-01	 -7.951457e-01	 1.500000e+00
-5.198493e-01	 -7.951457e-01	 2.250000e+00
-5.198493e-01	 -7.951457e-01	 3
-5.198493e-01	 7.951457e-01	 0
-5.198493e-01	 7.951457e-01	 1.500000e+00
-5.198493e-01	 7.951457e-01	 2.250000e+00
-5.198493e-01	 7.951457e-01	 3
-5.143216e-01	 -1.961513e-01	 2.250000e+00
-5.143216e-01	 1.961513e-01	 7.500000e-01
-5.143216e-01	 1.961513e-01	 1.500000e+00
-5.143216e-01	 -1.961513e-01	 7.500000e-01
-5.143216e-01	 -1.961513e-01	 0
-5.143216e-01	 -1.961513e-01	 3.000000e+00
-5.143216e-01	 -1.961513e-01	 1.500000e+00
-5.143216e-01	 1.961513e-01	 2.250000e+00
-5.143216e-01	 1.961513e-01	 0
-5.143216e-01	 1.961513e-01	 3.000000e+00
-5.020120e-01	 -5.020120e-01	 7.500000e-01
-5.020120e-01	 -5.020120e-01	 1.500000e+00
-5.020120e-01	 5.020120e-01	 7.500000e-01
-5.020120e-01	 5.020120e-01	 1.500000e+00
-5.020120e-01	 -5.020120e-01	 0
-5.020120e-01	 -5.020120e-01	 2.250000e+00
-5.020120e-01	 -5.020120e-01	 3.000000e+00
-5.020120e-01	 5.020120e-01	 0
-5.020120e-01	 5.020120e-01	 2.250000e+00
-5.020120e-01	 5.020120e-01	 3.000000e+00
-4.847636e-01	 8.158725e-02	 7.500000e-01
-4.847636e-01	 -8.158725e-02	 7.500000e-01
[...]
POINT_DATA 1641
SCALARS pres_adim float 1
LOOKUP_TABLE default
2.317344e+02
2.143421e+02
8.878340e+01
-1.958972e-07
-8.878340e+01
-1.638609e+02
-2.143421e+02
-2.317344e+02
1.638609e+02
-3.202527e-07
1.922447e+02
-1.922447e+02
-1.866498e+02
2.639627e+02
9.848224e-09
-2.639627e+02
1.359374e+02
-1.359374e+02
1.866498e+02
5.469085e+01
-5.469085e+01
-1.320355e+02
-1.008941e+02
1.103800e+02
1.426858e+02
-1.426858e+02
1.320355e+02
1.008941e+02
2.664808e+02
2.037225e+02
-2.037225e+02
-2.664808e+02
2.881071e+02
-1.103800e+02
-2.881071e+02
-2.974936e-07
2.437462e-07
-1.628261e+02
2.302710e+02
-1.811399e-07
-2.302710e+02
1.628261e+02
1.002931e+02
2.023342e+02
-1.002931e+02
-2.023342e+02
1.418359e+02
-2.660714e-07
-1.418359e+02
2.206241e-07
2.861437e+02
-2.861437e+02
1.594278e+02
-1.594278e+02
2.085546e+02
-8.638612e+01
-2.085546e+02
2.254651e+02
8.638612e+01
-1.040023e-07
-2.254651e+02
6.085893e+01
2.137576e+02
8.606759e+01
-1.600867e-07
-6.085893e+01
-8.606759e+01
3.022988e+02
3.573918e-07
-2.137576e+02
-3.022988e+02
1.321676e+02
1.811672e+02
2.562091e+02
-2.562091e+02
1.869133e+02
-1.587463e-07
-1.321676e+02
-1.869133e+02
2.070819e-08
-1.811672e+02
-1.300069e-07
1.414980e-07
-9.813201e+01
1.387797e+02
-1.387797e+02
2.582309e+02
1.284233e+02
5.319462e+01
-5.319462e+01
-1.284233e+02
1.069628e+02
2.791618e+02
-1.069628e+02
-1.973972e+02
-2.582309e+02
-2.791618e+02
1.973972e+02
9.813201e+01
2.177936e+02
1.540033e+02
-9.006009e-09
-1.540033e+02
-2.177936e+02
-2.243531e+01
-2.806432e+02
2.425141e+01
2.243531e+01
1.714832e+01
9.293006e+00
-9.293006e+00
-2.425141e+01
-1.714833e+01
2.474770e-07
3.033606e+02
2.806432e+02
2.145084e+02
1.162463e+02
-1.162463e+02
-3.033606e+02
6.855408e-08
-2.145084e+02
1.335526e+02
4.505371e-08
-1.335526e+02
9.443591e+01
-9.443591e+01
1.890506e+02
-1.890506e+02
2.673580e+02
3.881951e-08
-2.673580e+02
-5.911422e+01
5.911422e+01
2.069846e+02
-2.069846e+02
8.360018e+01
-8.360018e+01
2.927204e+02
1.739483e-07
-2.927204e+02
-4.724712e-08
1.462942e+02
2.068913e+02
1.913703e+02
7.926816e+01
8.355490e-08
-7.926816e+01
-1.913703e+02
-2.068913e+02
-1.462942e+02
1.703530e+02
-1.703530e+02
1.204577e+02
1.716530e-07
-1.204577e+02
1.637926e+02
4.276189e-08
2.316377e+02
-1.637926e+02
-2.316377e+02
2.408477e+01
6.520674e-08
-2.408477e+01
-2.130345e+02
3.012761e+02
2.176203e-07
-3.012761e+02
-1.703049e+01
1.703049e+01
2.130345e+02
1.933494e+02
1.367186e+02
1.709762e-07
-1.367186e+02
-1.933494e+02
-9.571478e+01
-1.766389e+02
-8.890413e+01
1.257295e+02
-1.163357e+02
-1.257295e+02
2.139231e-07
-4.818780e+01
2.498052e+02
-2.310759e+02
-2.498052e+02
-6.173318e-08
1.163357e+02
8.890413e+01
4.818780e+01
1.766389e+02
9.571478e+01
2.310759e+02
1.125328e+02
8.996146e+00
2.171863e+01
1.659883e+01
-8.996146e+00
-2.171863e+01
2.716781e+02
2.076347e+02
-1.125328e+02
2.347430e+01
6.382934e-08
-1.659883e+01
-2.347430e+01
2.936397e+02
7.595200e-08
-2.076347e+02
-2.936397e+02
-2.716781e+02
5.326782e+01
-2.001974e-07
-1.840389e+02
1.840389e+02
-5.326782e+01
7.533211e+01
1.891076e-07
-7.533211e+01
2.602703e+02
-2.602703e+02
2.082309e-07
-1.250779e+02
1.768868e+02
1.635762e+02
1.250779e+02
6.775545e+01
-6.775545e+01
-1.635762e+02
-1.768868e+02
2.067142e+02
-2.724537e+01
-3.853081e+01
2.432407e-07
2.724537e+01
3.853081e+01
2.923380e+02
6.918959e-08
-2.067142e+02
-2.923380e+02
-8.194662e+01
1.608223e+02
-1.295859e-07
8.194662e+01
1.158901e+02
-1.158901e+02
3.400353e-07
-1.608223e+02
2.274371e+02
-2.274371e+02
1.585354e+01
6.109981e-08
1.983118e+02
-1.106475e-07
2.242030e+01
-1.585354e+01
-2.242030e+01
2.804552e+02
-1.983118e+02
-2.804552e+02
1.348267e+02
1.010584e+02
1.429182e+02
3.348050e-07
-1.429182e+02
-1.010584e+02
1.906738e+02
5.806245e-08
-1.348267e+02
-1.906738e+02
2.165221e-07
-1.118362e+02
1.581604e+02
1.118362e+02
-1.581604e+02
7.980358e+00
9.982621e+01
2.082430e+01
-1.926630e+01
-2.082430e+01
1.926630e+01
6.038593e-08
-9.982621e+01
2.604908e+02
-2.410017e+02
-2.604908e+02
-7.980358e+00
-1.472500e+01
-1.841948e+02
2.410017e+02
-2.809437e-07
1.841948e+02
1.472500e+01
3.977031e+01
3.565505e-07
1.850482e+02
-1.850482e+02
-1.380203e-07
7.664949e+01
-7.340528e+01
-9.601404e+01
9.601404e+01
7.340528e+01
2.000914e+02
1.414860e+02
-1.414860e+02
-2.000914e+02
-7.664949e+01
-3.977031e+01
1.038108e+02
-1.038108e+02
-2.001349e+02
2.656807e+01
2.830334e+02
-2.830334e+02
-2.656807e+01
-3.757295e+01
1.259890e-07
3.757295e+01
-3.752935e-08
2.001349e+02
1.370195e+02
1.266039e+02
9.688738e+01
5.244103e+01
1.874220e-07
-5.244103e+01
-9.688738e+01
-1.266039e+02
-1.370195e+02
4.331469e+01
-4.331469e+01
6.125624e+01
-6.125624e+01
2.728867e-07
2.049030e+02
-3.196949e-07
-1.448883e+02
-2.049030e+02
1.448883e+02
-1.328480e+01
1.878755e+01
1.328480e+01
6.174349e-08
-1.878755e+01
2.350129e+02
1.661793e+02
-3.965570e-07
-2.350129e+02
-1.661793e+02
-6.385024e+01
9.029789e+01
-9.029789e+01
1.692322e+02
-1.692322e+02
-1.196653e+02
6.385024e+01
1.196653e+02
-1.092500e-07
3.130958e-07
-3.763276e+01
-9.816098e+01
3.763276e+01
9.816098e+01
2.679400e-07
2.688531e+02
-2.688531e+02
1.029993e+02
-1.029993e+02
-2.486624e+02
-9.085359e+01
-6.941025e+01
6.941025e+01
9.085359e+01
-3.249940e-08
2.486624e+02
-1.901078e+02
1.901078e+02
-2.433870e+01
-1.088171e-07
2.433870e+01
-1.778348e+02
1.778348e+02
-3.442015e+01
3.442015e+01
2.514964e+02
-2.646888e-07
-2.514964e+02
7.562173e+01
2.301880e-07
1.069453e+02
-7.562173e+01
-1.069453e+02
1.365427e+02
6.045305e-08
-9.655029e+01
-1.365427e+02
9.655029e+01
-6.902495e+01
6.902495e+01
1.887984e+02
-1.887984e+02
-9.761610e+01
9.761610e+01
2.670012e+02
-3.935431e-08
-2.670012e+02
2.344354e-07
1.152376e+01
1.441504e+02
7.810075e+01
6.243577e+00
1.629706e+01
1.507333e+01
6.122429e-08
-6.243577e+00
-1.507333e+01
-1.629706e+01
2.038595e+02
1.885519e+02
-3.765994e-07
-7.810075e+01
-1.885519e+02
-2.038595e+02
-1.152376e+01
-1.441504e+02
9.736394e-08
-8.852241e+01
2.408876e+02
-1.841456e+02
-5.754366e-08
-9.564402e+01
3.666715e+01
6.763049e+01
8.852241e+01
9.564402e+01
9.977893e+01
-9.977893e+01
2.604212e+02
-2.604212e+02
-3.666715e+01
-6.763049e+01
1.841456e+02
-2.408876e+02
6.977065e+01
7.547822e+01
2.889995e+01
2.138707e-07
-2.889995e+01
-5.337116e+01
-6.977065e+01
-7.547822e+01
1.353682e+02
9.571977e+01
-9.571977e+01
-1.251264e+02
-1.353682e+02
5.182905e+01
-5.324005e-08
5.337116e+01
1.251264e+02
-5.182905e+01
-9.224908e+01
-7.297424e-08
9.224908e+01
2.493067e+02
-8.008100e-08
-2.493067e+02
-6.522991e+01
6.522991e+01
1.762865e+02
-1.762865e+02
1.351083e+01
9.553598e+00
5.956631e-08
-1.351083e+01
1.690065e+02
1.195057e+02
-2.871038e-07
-1.690065e+02
-9.553598e+00
-1.195057e+02
-2.055738e+01
1.397822e+02
-1.397822e+02
-2.907254e+01
-1.731462e-07
2.055738e+01
2.907254e+01
1.976819e+02
-1.976819e+02
-3.053145e-07
1.864971e-08
1.321715e-07
1.521627e-07
7.400233e+01
-7.400233e+01
-1.390236e-07
4.323853e+01
-3.057426e+01
-4.323853e+01
3.057426e+01
-5.232754e+01
5.232754e+01
1.044202e+02
7.383626e+01
-1.044202e+02
-7.383626e+01
9.450297e+01
1.336474e+02
-9.450297e+01
-1.336474e+02
-1.646053e+02
6.162417e+01
-2.320846e-07
-8.064895e+01
2.153284e+02
-8.714979e+01
8.064895e+01
8.714979e+01
1.646053e+02
2.327870e+02
-2.153284e+02
-2.327870e+02
3.340587e+01
-6.162417e+01
-3.340587e+01
8.919193e+01
-9.705493e-08
-8.919193e+01
1.497047e+02
-3.392994e-07
-8.078313e+01
8.078313e+01
2.117144e+02
-2.117144e+02
-5.712227e+01
5.712227e+01
-1.022042e-07
-1.497047e+02
7.420779e+00
9.282628e+01
9.700479e+00
5.375194e-08
5.100393e+01
1.213430e+02
1.049457e+01
4.018070e+00
4.710004e-08
-4.018070e+00
-7.420779e+00
-9.700479e+00
-1.049457e+01
-6.666114e+01
6.666114e+01
7.213045e+01
-2.761195e+01
-7.213045e+01
-5.100393e+01
1.312762e+02
5.026190e+01
-1.647076e-07
-5.026190e+01
-9.282628e+01
-1.213430e+02
-1.312762e+02
2.761195e+01
-6.502589e-08
-1.522424e+02
1.815927e-07
1.522424e+02
2.364234e+02
-2.364234e+02
1.076516e+02
-1.076516e+02
1.671766e+02
-1.671766e+02
-2.794796e+01
7.123590e+01
-3.293049e-07
2.794796e+01
-7.123590e+01
-1.314941e+02
-8.865750e-08
6.747236e+01
-7.294873e+01
-5.158252e+01
5.158252e+01
7.294873e+01
1.859608e+02
-1.859608e+02
-1.719787e+02
-6.747236e+01
1.719787e+02
1.314941e+02
-1.047155e+02
-1.480901e+02
1.480901e+02
1.622301e+02
2.845908e-08
1.047155e+02
2.294280e+02
-1.293469e-08
-1.622301e+02
-2.294280e+02
5.651977e+00
7.070038e+01
-8.095145e-08
-6.509023e-08
-2.228905e+01
1.576074e+01
2.228905e+01
-5.651977e+00
7.993103e+00
3.537419e-08
-7.993103e+00
3.899236e+01
5.215104e-08
-2.757176e+01
-3.899236e+01
2.757176e+01
4.943191e+01
6.990728e+01
-6.990728e+01
-4.943191e+01
9.998544e+01
-7.070038e+01
-9.998544e+01
1.284089e+02
-9.079883e+01
-1.284089e+02
-1.338995e-07
-1.576074e+01
-8.757650e-09
9.079883e+01
4.541582e+01
-2.664547e-07
-6.422769e+01
6.422769e+01
-4.541582e+01
-6.243866e-08
1.109302e+02
1.568790e+02
-1.568790e+02
-1.109302e+02
-1.352707e+02
9.565077e+01
1.352707e+02
2.072053e+02
-2.072053e+02
1.063365e-07
-1.465162e+02
1.465162e+02
-9.565077e+01
-2.746702e-07
-3.273145e-08
-2.093171e+01
-1.601315e-07
4.976490e+00
-4.976490e+00
-3.807410e+00
6.225073e+01
1.155089e+02
-5.466657e+01
-3.865510e+01
3.865510e+01
5.053362e+01
5.466657e+01
2.093171e+01
5.384490e+00
-5.384490e+00
3.807410e+00
2.061329e+00
2.046615e-08
6.735440e+01
4.762675e+01
-2.578510e+01
-4.762675e+01
-6.225073e+01
-6.735440e+01
8.836294e+01
1.249641e+02
4.784537e+01
-3.809126e-08
-4.784537e+01
-8.836294e+01
-1.155089e+02
-1.249641e+02
-5.053362e+01
-2.061329e+00
2.578510e+01
-8.066294e+01
1.202994e+02
-1.140747e+02
-3.819092e-07
8.066294e+01
1.140747e+02
1.701291e+02
1.572767e-07
-1.701291e+02
-1.202994e+02
-6.105825e+01
4.111941e+01
2.397433e+01
6.636586e+01
9.666743e-08
-8.634942e+01
-2.185897e-07
6.105825e+01
8.634942e+01
-9.718916e-08
-5.815163e+01
5.815163e+01
-4.111941e+01
1.997217e+01
2.710442e+00
1.916572e+00
-2.710442e+00
-8.909106e-11
-1.916572e+00
3.390482e+01
-1.439987e-08
-2.397433e+01
-3.390482e+01
6.453215e+01
-6.453215e+01
-2.629715e-08
-4.563112e+01
-6.636586e+01
9.385550e+01
-9.385550e+01
1.388977e-08
1.210902e+02
-8.562372e+01
-1.210902e+02
8.562372e+01
-2.824492e+01
-1.969863e-08
2.824492e+01
-1.997217e+01
4.563112e+01
-5.679197e+01
5.679197e+01
2.352400e+01
-2.352400e+01
-4.345281e+01
4.345281e+01
-1.974261e+02
-1.826087e+02
-7.563899e+01
6.273264e-08
7.563899e+01
1.396013e+02
1.826087e+02
1.974261e+02
-1.396013e+02
1.387197e+02
-1.961793e+02
4.669060e-08
1.961793e+02
-1.387197e+02
-1.358245e+02
1.358245e+02
-1.776780e+02
7.359663e+01
1.776780e+02
-1.920849e+02
-7.359663e+01
-2.478374e-08
1.920849e+02
-1.855492e+02
-1.312031e+02
-1.123514e-07
1.312031e+02
1.855492e+02
-1.246353e+02
-1.762610e+02
-1.630379e+02
-6.753249e+01
-2.009413e-07
6.753249e+01
1.630379e+02
1.762610e+02
1.246353e+02
-1.647240e+02
-1.164774e+02
-2.749042e-07
1.164774e+02
1.647240e+02
-2.877336e-07
1.065601e+02
-1.506987e+02
-1.393587e+02
-1.065601e+02
-5.772425e+01
5.772425e+01
1.393587e+02
1.506987e+02
-2.736694e-07
9.527889e+01
-1.347447e+02
-9.527889e+01
1.347447e+02
-1.167337e+02
-1.078602e+02
-8.254321e+01
-4.467714e+01
-2.145348e-07
4.467714e+01
8.254321e+01
1.078602e+02
1.167337e+02
1.719318e-08
-3.610688e-08
1.365326e-08
1.457440e-08
-1.932774e-08
3.561731e-08
3.967512e-08
3.167674e-08
6.555086e-09
6.145155e+01
-4.345281e+01
-6.145155e+01
4.345281e+01
2.033117e-08
1.167337e+02
1.078602e+02
8.254321e+01
4.467714e+01
2.377797e-07
-4.467714e+01
-8.254321e+01
-1.078602e+02
-1.167337e+02
1.347447e+02
9.527889e+01
-1.347447e+02
-9.527889e+01
3.076317e-07
1.506987e+02
1.393587e+02
1.065601e+02
5.772425e+01
-5.772425e+01
-1.393587e+02
-1.506987e+02
3.287774e-07
-1.065601e+02
1.647240e+02
1.164774e+02
3.069367e-07
-1.164774e+02
-1.647240e+02
-1.246353e+02
1.762610e+02
1.630379e+02
6.753249e+01
2.181998e-07
-6.753249e+01
-1.630379e+02
-1.762610e+02
1.246353e+02
1.855492e+02
1.312031e+02
1.126811e-07
-1.312031e+02
-1.855492e+02
1.920849e+02
7.359663e+01
5.884476e-09
-1.920849e+02
1.776780e+02
-7.359663e+01
-1.776780e+02
1.358245e+02
-1.358245e+02
1.387197e+02
1.961793e+02
-7.845651e-08
-1.961793e+02
-1.387197e+02
1.396013e+02
1.974261e+02
1.826087e+02
7.563899e+01
-9.998219e-08
-7.563899e+01
-1.396013e+02
-1.826087e+02
-1.974261e+02
-5.679197e+01
-6.145155e+01
6.145155e+01
-3.823906e-08
5.679197e+01
2.352400e+01
-2.352400e+01
-4.563112e+01
-2.313710e-08
2.824492e+01
1.997217e+01
-5.258241e-09
-2.824492e+01
-6.453215e+01
-3.200658e-09
6.453215e+01
-3.678327e-08
-8.562372e+01
-1.210902e+02
-8.771098e-08
8.562372e+01
1.210902e+02
-9.385550e+01
9.385550e+01
-3.390482e+01
-2.397433e+01
2.397433e+01
3.390482e+01
-2.710442e+00
1.916572e+00
2.710442e+00
-1.916572e+00
-1.997217e+01
4.111941e+01
-4.111941e+01
5.815163e+01
-5.815163e+01
8.634942e+01
2.339088e-07
-6.105825e+01
-8.634942e+01
6.105825e+01
6.636586e+01
-6.636586e+01
4.563112e+01
8.893696e-08
-2.602924e-08
1.202994e+02
-1.701291e+02
-1.243240e-07
1.701291e+02
1.140747e+02
4.184986e-07
-8.066294e+01
-1.140747e+02
-1.202994e+02
8.066294e+01
-1.155089e+02
2.578510e+01
3.807410e+00
-5.182457e-08
5.053362e+01
-1.249641e+02
-8.836294e+01
-4.784537e+01
3.075450e-08
4.784537e+01
8.836294e+01
1.155089e+02
1.249641e+02
-4.762675e+01
-6.735440e+01
-2.578510e+01
-3.456967e-09
4.762675e+01
6.225073e+01
6.735440e+01
-5.384490e+00
-3.807410e+00
4.976490e+00
5.384490e+00
-4.976490e+00
3.865510e+01
-2.093171e+01
5.466657e+01
2.093171e+01
1.655068e-07
-3.865510e+01
-5.053362e+01
-5.466657e+01
-6.225073e+01
-2.061329e+00
2.061329e+00
9.565077e+01
2.983271e-07
-1.465162e+02
-9.493083e-08
1.465162e+02
-2.072053e+02
2.072053e+02
1.352707e+02
-9.565077e+01
-1.352707e+02
1.109302e+02
-1.568790e+02
1.568790e+02
-1.109302e+02
7.445825e-08
4.541582e+01
6.422769e+01
-6.422769e+01
2.923088e-07
-4.541582e+01
-9.998544e+01
9.998544e+01
-9.079883e+01
4.943191e+01
-9.282020e-08
2.757176e+01
1.576074e+01
1.145968e-07
-1.284089e+02
9.079883e+01
1.284089e+02
-7.070038e+01
4.848266e-08
7.070038e+01
-4.943191e+01
-3.899236e+01
3.899236e+01
-2.757176e+01
-7.993103e+00
-5.651977e+00
5.651977e+00
7.993103e+00
-6.108083e-08
2.228905e+01
-1.576074e+01
-2.228905e+01
6.367550e-08
-6.990728e+01
-3.461729e-08
6.990728e+01
-2.294280e+02
-2.692675e-08
1.622301e+02
2.294280e+02
-2.237389e-08
-1.047155e+02
-1.622301e+02
1.480901e+02
-1.480901e+02
1.047155e+02
-1.719787e+02
-1.314941e+02
6.747236e+01
1.719787e+02
-1.859608e+02
1.859608e+02
7.294873e+01
5.158252e+01
-5.158252e+01
-7.294873e+01
-6.747236e+01
1.074871e-07
1.314941e+02
7.123590e+01
-2.794796e+01
3.638499e-07
-7.123590e+01
2.794796e+01
-1.671766e+02
1.671766e+02
1.076516e+02
-1.076516e+02
-2.364234e+02
2.364234e+02
1.522424e+02
-1.766700e-07
-1.522424e+02
3.691286e-09
-7.213045e+01
6.666114e+01
7.213045e+01
-1.312762e+02
-5.026190e+01
1.358455e-07
5.026190e+01
9.282628e+01
1.213430e+02
1.312762e+02
-5.100393e+01
-2.761195e+01
2.761195e+01
-1.049457e+01
-4.018070e+00
-6.408958e-08
4.018070e+00
7.420779e+00
9.700479e+00
1.049457e+01
-1.213430e+02
-6.666114e+01
-9.992909e-08
5.100393e+01
-9.700479e+00
-9.282628e+01
-7.420779e+00
1.497047e+02
1.153369e-07
-5.712227e+01
5.712227e+01
-2.117144e+02
2.117144e+02
8.078313e+01
-8.078313e+01
3.670765e-07
-1.497047e+02
9.492047e-08
8.919193e+01
-8.919193e+01
6.162417e+01
3.340587e+01
-3.340587e+01
-2.327870e+02
2.153284e+02
2.327870e+02
-1.646053e+02
8.714979e+01
-8.064895e+01
-8.714979e+01
-2.153284e+02
8.064895e+01
2.488166e-07
-6.162417e+01
1.646053e+02
-7.383626e+01
-5.232754e+01
-1.336474e+02
9.450297e+01
1.336474e+02
-9.450297e+01
-3.057426e+01
-4.323853e+01
3.057426e+01
4.323853e+01
1.052205e-07
-1.044202e+02
7.383626e+01
1.044202e+02
-7.400233e+01
7.400233e+01
5.232754e+01
-1.815642e-07
-6.639747e-08
-1.779748e-07
3.124012e-07
-1.976819e+02
1.976819e+02
2.907254e+01
2.059627e-07
-2.055738e+01
-2.907254e+01
1.397822e+02
-1.397822e+02
2.055738e+01
1.195057e+02
9.553598e+00
-1.690065e+02
-1.195057e+02
2.770935e-07
1.690065e+02
-1.351083e+01
-9.553598e+00
-5.633182e-08
1.351083e+01
-1.762865e+02
1.762865e+02
6.522991e+01
-6.522991e+01
-2.493067e+02
4.968920e-08
2.493067e+02
9.224908e+01
7.720686e-08
-9.224908e+01
-9.571977e+01
5.182905e+01
-1.251264e+02
-6.977065e+01
-5.337116e+01
2.889995e+01
-5.182905e+01
1.254431e-08
-1.353682e+02
9.571977e+01
1.251264e+02
1.353682e+02
-7.547822e+01
-2.889995e+01
-2.510629e-07
5.337116e+01
6.977065e+01
7.547822e+01
2.408876e+02
-1.841456e+02
6.763049e+01
3.666715e+01
-2.604212e+02
2.604212e+02
-9.977893e+01
9.977893e+01
9.564402e+01
-3.666715e+01
-6.763049e+01
-8.852241e+01
-9.564402e+01
1.959306e-09
1.841456e+02
-2.408876e+02
8.852241e+01
-9.470253e-08
1.441504e+02
1.152376e+01
-2.038595e+02
-1.885519e+02
3.800421e-07
7.810075e+01
1.885519e+02
2.038595e+02
-1.629706e+01
-1.507333e+01
-4.634948e-08
6.243577e+00
1.507333e+01
1.629706e+01
-6.243577e+00
-7.810075e+01
-1.441504e+02
-1.152376e+01
-2.236949e-07
-2.670012e+02
-3.287624e-08
2.670012e+02
9.761610e+01
-9.761610e+01
1.887984e+02
-1.887984e+02
-6.902495e+01
6.902495e+01
-9.655029e+01
-1.093635e-07
-1.365427e+02
9.655029e+01
1.365427e+02
-1.069453e+02
-2.756000e-07
7.562173e+01
1.069453e+02
-7.562173e+01
-2.514964e+02
2.682925e-07
2.514964e+02
3.442015e+01
-3.442015e+01
-1.778348e+02
1.778348e+02
1.191292e-07
-2.433870e+01
2.433870e+01
-1.901078e+02
1.901078e+02
-2.486624e+02
-4.618366e-08
9.085359e+01
6.941025e+01
-6.941025e+01
-9.085359e+01
-1.029993e+02
1.029993e+02
2.486624e+02
-2.688531e+02
2.688531e+02
-2.555034e-07
9.816099e+01
-3.763276e+01
-9.816099e+01
3.763276e+01
-3.424180e-07
7.581171e-08
-1.196653e+02
-6.385024e+01
1.196653e+02
-1.692322e+02
1.692322e+02
-9.029789e+01
9.029789e+01
6.385024e+01
1.661793e+02
-2.350129e+02
-1.661793e+02
4.188719e-07
2.350129e+02
-1.878755e+01
-1.328480e+01
-4.284557e-08
1.878755e+01
1.328480e+01
-1.448883e+02
-2.049030e+02
3.202575e-07
1.448883e+02
2.049030e+02
-2.767923e-07
-6.125624e+01
6.125624e+01
4.331469e+01
-4.331469e+01
-1.370195e+02
-1.266039e+02
-9.688738e+01
-5.244103e+01
-2.327504e-07
5.244103e+01
9.688738e+01
1.266039e+02
1.370195e+02
-2.001349e+02
9.977843e-09
3.757295e+01
-1.583471e-07
-3.757295e+01
2.656806e+01
-2.830334e+02
2.830334e+02
-2.656806e+01
2.001349e+02
-1.038108e+02
1.038108e+02
3.977031e+01
7.664949e+01
-2.000914e+02
-1.414860e+02
1.414860e+02
2.000914e+02
-9.601404e+01
-7.340528e+01
9.601404e+01
7.340528e+01
-7.664949e+01
1.190994e-07
1.850482e+02
-1.850482e+02
-3.670827e-07
-3.977031e+01
-1.472500e+01
-1.841948e+02
-2.410017e+02
3.168335e-07
1.841948e+02
1.472500e+01
7.980358e+00
-2.604908e+02
2.410017e+02
2.604908e+02
9.982621e+01
-1.926630e+01
-5.197504e-08
-2.082430e+01
1.926630e+01
2.082430e+01
-9.982621e+01
-7.980358e+00
-1.581604e+02
-1.118362e+02
1.581604e+02
1.118362e+02
-2.562685e-07
-1.906738e+02
-9.307297e-08
1.348267e+02
1.906738e+02
1.010584e+02
-1.429182e+02
-3.556476e-07
1.429182e+02
-1.010584e+02
-1.348267e+02
-2.804552e+02
1.983118e+02
2.804552e+02
-2.242030e+01
1.585354e+01
2.242030e+01
-1.983118e+02
1.503003e-07
-1.585354e+01
-7.834796e-08
-2.274371e+02
2.274371e+02
1.608223e+02
-3.301665e-07
-1.158901e+02
1.158901e+02
-8.194662e+01
1.347806e-07
-1.608223e+02
8.194662e+01
-2.923380e+02
-1.175003e-07
2.067142e+02
2.923380e+02
3.853081e+01
-2.826306e-07
-2.724537e+01
-3.853082e+01
2.724537e+01
-2.067142e+02
-1.768868e+02
-1.635762e+02
-1.250779e+02
-6.775545e+01
6.775545e+01
1.635762e+02
1.768868e+02
-2.364471e-07
1.250779e+02
-2.602703e+02
2.602703e+02
-7.533211e+01
-1.729558e-07
7.533211e+01
5.326782e+01
-1.840389e+02
2.471231e-07
1.840389e+02
-5.326782e+01
2.716781e+02
-2.936397e+02
-2.680924e-08
2.076347e+02
2.936397e+02
-2.347430e+01
-9.899232e-08
1.659883e+01
2.347430e+01
-2.716781e+02
-2.076347e+02
1.125328e+02
2.171863e+01
-2.171863e+01
-1.659883e+01
8.996146e+00
-8.996146e+00
-1.125328e+02
-2.310759e+02
-1.766389e+02
-9.571478e+01
-4.818780e+01
-8.890413e+01
-1.163357e+02
8.087671e-08
-2.498052e+02
2.310759e+02
2.498052e+02
-1.817163e-07
4.818780e+01
-1.257295e+02
1.163357e+02
1.257295e+02
8.890413e+01
1.766389e+02
9.571478e+01
-1.933494e+02
-1.367186e+02
-1.871722e-07
1.367186e+02
1.933494e+02
-2.130345e+02
-1.703049e+01
1.703049e+01
-3.012761e+02
-1.650539e-07
3.012761e+02