# vtk DataFile Version 3.0
Unstructured Grid Example
ASCII
DATASET UNSTRUCTURED_GRID
POINTS 1641 float
-9.500000e-01	 0	 0
-9.500000e-01	 0	 3.750000e-01
-9.500000e-01	 0	 1.125000e+00
-9.500000e-01	 0	 1.500000e+00
-9.500000e-01	 0	 1.875000e+00
-9.500000e-01	 0	 2.250000e+00
-9.500000e-01	 0	 2.625000e+00
-9.500000e-01	 0	 3
-9.500000e-01	 0	 7.500000e-01
-9.341401e-01	 -1.728649e-01	 1.500000e+00
-9.341401e-01	 -1.728649e-01	 0
-9.341401e-01	 -1.728649e-01	 3.000000e+00
-9.341401e-01	 1.728649e-01	 2.250000e+00
-9.341401e-01	 1.728649e-01	 0
-9.341401e-01	 1.728649e-01	 1.500000e+00
-9.341401e-01	 1.728649e-01	 3.000000e+00
-9.341401e-01	 -1.728649e-01	 7.500000e-01
-9.341401e-01	 -1.728649e-01	 2.250000e+00
-9.341401e-01	 1.728649e-01	 7.500000e-01
-8.832989e-01	 -3.496900e-01	 1.125000e+00
-8.832989e-01	 -3.496900e-01	 1.875000e+00
-8.832989e-01	 -3.496900e-01	 2.625000e+00
-8.832989e-01	 -3.496900e-01	 2.250000e+00
-8.832989e-01	 3.496900e-01	 1.125000e+00
-8.832989e-01	 -3.496900e-01	 0
-8.832989e-01	 -3.496900e-01	 3.000000e+00
-8.832989e-01	 -3.496900e-01	 3.750000e-01
-8.832989e-01	 -3.496900e-01	 7.500000e-01
-8.832989e-01	 3.496900e-01	 3.750000e-01
-8.832989e-01	 3.496900e-01	 7.500000e-01
-8.832989e-01	 3.496900e-01	 2.250000e+00
-8.832989e-01	 3.496900e-01	 2.625000e+00
-8.832989e-01	 3.496900e-01	 0
-8.832989e-01	 3.496900e-01	 1.875000e+00
-8.832989e-01	 3.496900e-01	 3.000000e+00
-8.832989e-01	 -3.496900e-01	 1.500000e+00
-8.832989e-01	 3.496900e-01	 1.500000e+00
-8.787500e-01	 0	 2.250000e+00
-8.787500e-01	 0	 0
-8.787500e-01	 0	 1.500000e+00
-8.787500e-01	 0	 3
-8.787500e-01	 0	 7.500000e-01
-8.149622e-01	 -3.223238e-01	 7.500000e-01
-8.149622e-01	 3.223238e-01	 7.500000e-01
-8.149622e-01	 -3.223238e-01	 2.250000e+00
-8.149622e-01	 3.223238e-01	 2.250000e+00
-8.149622e-01	 -3.223238e-01	 0
-8.149622e-01	 -3.223238e-01	 1.500000e+00
-8.149622e-01	 -3.223238e-01	 3
-8.149622e-01	 3.223238e-01	 1.500000e+00
-8.149622e-01	 3.223238e-01	 0
-8.149622e-01	 3.223238e-01	 3
-8.075000e-01	 0	 7.500000e-01
-8.075000e-01	 0	 2.250000e+00
-8.075000e-01	 0	 3.750000e-01
-8.075000e-01	 0	 1.875000e+00
-8.075000e-01	 0	 2.625000e+00
-8.075000e-01	 0	 0
-8.075000e-01	 0	 1.125000e+00
-8.075000e-01	 0	 1.500000e+00
-8.075000e-01	 0	 3
-7.951457e-01	 -5.198493e-01	 7.500000e-01
-7.951457e-01	 5.198493e-01	 7.500000e-01
-7.951457e-01	 -5.198493e-01	 0
-7.951457e-01	 -5.198493e-01	 1.500000e+00
-7.951457e-01	 -5.198493e-01	 2.250000e+00
-7.951457e-01	 -5.198493e-01	 3
-7.951457e-01	 5.198493e-01	 0
-7.951457e-01	 5.198493e-01	 1.500000e+00
-7.951457e-01	 5.198493e-01	 2.250000e+00
-7.951457e-01	 5.198493e-01	 3
-7.894916e-01	 -1.451644e-01	 7.500000e-01
-7.894916e-01	 1.451644e-01	 7.500000e-01
-7.894916e-01	 1.451644e-01	 0
-7.894916e-01	 1.451644e-01	 3
-7.894916e-01	 -1.451644e-01	 0
-7.894916e-01	 -1.451644e-01	 1.500000e+00
-7.894916e-01	 -1.451644e-01	 2.250000e+00
-7.894916e-01	 -1.451644e-01	 3
-7.894916e-01	 1.451644e-01	 1.500000e+00
-7.894916e-01	 1.451644e-01	 2.250000e+00
-7.430021e-01	 -2.929055e-01	 1.500000e+00
-7.430021e-01	 2.929055e-01	 1.500000e+00
-7.430021e-01	 -2.929055e-01	 2.250000e+00
-7.430021e-01	 -2.929055e-01	 0
-7.430021e-01	 -2.929055e-01	 3.000000e+00
-7.430021e-01	 2.929055e-01	 3.750000e-01
-7.430021e-01	 -2.929055e-01	 3.750000e-01
-7.430021e-01	 -2.929055e-01	 1.125000e+00
-7.430021e-01	 -2.929055e-01	 1.875000e+00
-7.430021e-01	 -2.929055e-01	 2.625000e+00
-7.430021e-01	 2.929055e-01	 1.125000e+00
-7.430021e-01	 2.929055e-01	 0
-7.430021e-01	 2.929055e-01	 1.875000e+00
-7.430021e-01	 2.929055e-01	 2.250000e+00
-7.430021e-01	 2.929055e-01	 2.625000e+00
-7.430021e-01	 2.929055e-01	 3.000000e+00
-7.430021e-01	 2.929055e-01	 7.500000e-01
-7.430021e-01	 -2.929055e-01	 7.500000e-01
-7.362500e-01	 0	 0
-7.362500e-01	 0	 7.500000e-01
-7.362500e-01	 0	 1.500000e+00
-7.362500e-01	 0	 2.250000e+00
-7.362500e-01	 0	 3
-6.717514e-01	 -6.717514e-01	 2.625000e+00
-6.717514e-01	 6.717514e-01	 2.625000e+00
-6.717514e-01	 -6.717514e-01	 0
-6.717514e-01	 -6.717514e-01	 3.750000e-01
-6.717514e-01	 -6.717514e-01	 7.500000e-01
-6.717514e-01	 -6.717514e-01	 1.125000e+00
-6.717514e-01	 -6.717514e-01	 1.875000e+00
-6.717514e-01	 -6.717514e-01	 3.000000e+00
-6.717514e-01	 -6.717514e-01	 2.250000e+00
-6.717514e-01	 6.717514e-01	 1.500000e+00
-6.717514e-01	 6.717514e-01	 0
-6.717514e-01	 6.717514e-01	 3.750000e-01
-6.717514e-01	 6.717514e-01	 7.500000e-01
-6.717514e-01	 6.717514e-01	 1.125000e+00
-6.717514e-01	 6.717514e-01	 1.875000e+00
-6.717514e-01	 6.717514e-01	 3.000000e+00
-6.717514e-01	 -6.717514e-01	 1.500000e+00
-6.717514e-01	 6.717514e-01	 2.250000e+00
-6.682985e-01	 -2.618048e-01	 0
-6.682985e-01	 -2.618048e-01	 1.500000e+00
-6.682985e-01	 -2.618048e-01	 3
-6.682985e-01	 -2.618048e-01	 7.500000e-01
-6.682985e-01	 -2.618048e-01	 2.250000e+00
-6.682985e-01	 2.618048e-01	 7.500000e-01
-6.682985e-01	 2.618048e-01	 2.250000e+00
-6.682985e-01	 2.618048e-01	 0
-6.682985e-01	 2.618048e-01	 1.500000e+00
-6.682985e-01	 2.618048e-01	 3
-6.665713e-01	 -4.348738e-01	 2.250000e+00
-6.665713e-01	 -4.348738e-01	 7.500000e-01
-6.665713e-01	 4.348738e-01	 7.500000e-01
-6.665713e-01	 4.348738e-01	 2.250000e+00
-6.665713e-01	 -4.348738e-01	 0
-6.665713e-01	 -4.348738e-01	 3
-6.665713e-01	 4.348738e-01	 0
-6.665713e-01	 4.348738e-01	 1.500000e+00
-6.665713e-01	 4.348738e-01	 3
-6.665713e-01	 -4.348738e-01	 1.500000e+00
-6.650000e-01	 0	 7.500000e-01
-6.650000e-01	 0	 0
-6.650000e-01	 0	 3.750000e-01
-6.650000e-01	 0	 1.125000e+00
-6.650000e-01	 0	 1.500000e+00
-6.650000e-01	 0	 1.875000e+00
-6.650000e-01	 0	 2.625000e+00
-6.650000e-01	 0	 3
-6.650000e-01	 0	 2.250000e+00
-6.383743e-01	 -1.144482e-01	 0
-6.383743e-01	 -1.144482e-01	 3.000000e+00
-6.383743e-01	 -1.144482e-01	 7.500000e-01
-6.383743e-01	 -1.144482e-01	 1.500000e+00
-6.383743e-01	 -1.144482e-01	 2.250000e+00
-6.383743e-01	 1.144482e-01	 7.500000e-01
-6.383743e-01	 1.144482e-01	 1.500000e+00
-6.383743e-01	 1.144482e-01	 0
-6.383743e-01	 1.144482e-01	 2.250000e+00
-6.383743e-01	 1.144482e-01	 3.000000e+00
-6.189903e-01	 -6.189903e-01	 0
-6.189903e-01	 -6.189903e-01	 1.500000e+00
-6.189903e-01	 -6.189903e-01	 3.000000e+00
-6.189903e-01	 6.189903e-01	 2.250000e+00
-6.189903e-01	 6.189903e-01	 0
-6.189903e-01	 6.189903e-01	 1.500000e+00
-6.189903e-01	 6.189903e-01	 3.000000e+00
-6.189903e-01	 -6.189903e-01	 2.250000e+00
-6.189903e-01	 -6.189903e-01	 7.500000e-01
-6.189903e-01	 6.189903e-01	 7.500000e-01
-5.937500e-01	 0	 0
-5.937500e-01	 0	 7.500000e-01
-5.937500e-01	 0	 1.500000e+00
-5.937500e-01	 0	 2.250000e+00
-5.937500e-01	 0	 3
-5.917666e-01	 2.294176e-01	 1.875000e+00
-5.917666e-01	 2.294176e-01	 2.250000e+00
-5.917666e-01	 -2.294176e-01	 2.250000e+00
-5.917666e-01	 -2.294176e-01	 0
-5.917666e-01	 -2.294176e-01	 2.625000e+00
-5.917666e-01	 -2.294176e-01	 3
-5.917666e-01	 -2.294176e-01	 1.500000e+00
-5.917666e-01	 -2.294176e-01	 1.875000e+00
-5.917666e-01	 2.294176e-01	 0
-5.917666e-01	 2.294176e-01	 2.625000e+00
-5.917666e-01	 2.294176e-01	 3
-5.917666e-01	 2.294176e-01	 1.500000e+00
-5.917666e-01	 -2.294176e-01	 3.750000e-01
-5.917666e-01	 -2.294176e-01	 7.500000e-01
-5.917666e-01	 -2.294176e-01	 1.125000e+00
-5.917666e-01	 2.294176e-01	 7.500000e-01
-5.917666e-01	 2.294176e-01	 1.125000e+00
-5.917666e-01	 2.294176e-01	 3.750000e-01
-5.620800e-01	 5.620800e-01	 1.125000e+00
-5.620800e-01	 -5.620800e-01	 1.125000e+00
-5.620800e-01	 -5.620800e-01	 3.750000e-01
-5.620800e-01	 -5.620800e-01	 7.500000e-01
-5.620800e-01	 -5.620800e-01	 1.875000e+00
-5.620800e-01	 -5.620800e-01	 2.625000e+00
-5.620800e-01	 5.620800e-01	 3.750000e-01
-5.620800e-01	 5.620800e-01	 7.500000e-01
-5.620800e-01	 5.620800e-01	 1.875000e+00
-5.620800e-01	 -5.620800e-01	 0
-5.620800e-01	 -5.620800e-01	 1.500000e+00
-5.620800e-01	 -5.620800e-01	 2.250000e+00
-5.620800e-01	 -5.620800e-01	 3
-5.620800e-01	 5.620800e-01	 0
-5.620800e-01	 5.620800e-01	 1.500000e+00
-5.620800e-01	 5.620800e-01	 2.250000e+00
-5.620800e-01	 5.620800e-01	 3
-5.620800e-01	 5.620800e-01	 2.625000e+00
-5.250231e-01	 -3.396892e-01	 7.500000e-01
-5.250231e-01	 3.396892e-01	 1.500000e+00
-5.250231e-01	 3.396892e-01	 2.250000e+00
-5.250231e-01	 3.396892e-01	 7.500000e-01
-5.250231e-01	 -3.396892e-01	 2.250000e+00
-5.250231e-01	 -3.396892e-01	 0
-5.250231e-01	 -3.396892e-01	 1.500000e+00
-5.250231e-01	 -3.396892e-01	 3.000000e+00
-5.250231e-01	 3.396892e-01	 0
-5.250231e-01	 3.396892e-01	 3.000000e+00
-5.225000e-01	 0	 1.500000e+00
-5.225000e-01	 0	 2.250000e+00
-5.225000e-01	 0	 0
-5.225000e-01	 0	 3.750000e-01
-5.225000e-01	 0	 7.500000e-01
-5.225000e-01	 0	 1.125000e+00
-5.225000e-01	 0	 1.875000e+00
-5.225000e-01	 0	 2.625000e+00
-5.225000e-01	 0	 3
-5.198493e-01	 7.951457e-01	 7.500000e-01
-5.198493e-01	 -7.951457e-01	 7.500000e-01
-5.198493e-01	 -7.951457e-01	 0
-5.198493e-01	 -7.951457e-01	 1.500000e+00
-5.198493e-01	 -7.951457e-01	 2.250000e+00
-5.198493e-01	 -7.951457e-01	 3
-5.198493e-01	 7.951457e-01	 0
-5.198493e-01	 7.951457e-01	 1.500000e+00
-5.198493e-01	 7.951457e-01	 2.250000e+00
-5.198493e-01	 7.951457e-01	 3
-5.143216e-01	 -1.961513e-01	 2.250000e+00
-5.143216e-01	 1.961513e-01	 7.500000e-01
-5.143216e-01	 1.961513e-01	 1.500000e+00
-5.143216e-01	 -1.961513e-01	 7.500000e-01
-5.143216e-01	 -1.961513e-01	 0
-5.143216e-01	 -1.961513e-01	 3.000000e+00
-5.143216e-01	 -1.961513e-01	 1.500000e+00
-5.143216e-01	 1.961513e-01	 2.250000e+00
-5.143216e-01	 1.961513e-01	 0
-5.143216e-01	 1.961513e-01	 3.000000e+00
-5.020120e-01	 -5.020120e-01	 7.500000e-01
-5.020120e-01	 -5.020120e-01	 1.500000e+00
-5.020120e-01	 5.020120e-01	 7.500000e-01
-5.020120e-01	 5.020120e-01	 1.500000e+00
-5.020120e-01	 -5.020120e-01	 0
-5.020120e-01	 -5.020120e-01	 2.250000e+00
-5.020120e-01	 -5.020120e-01	 3.000000e+00
-5.020120e-01	 5.020120e-01	 0
-5.020120e-01	 5.020120e-01	 2.250000e+00
-5.020120e-01	 5.020120e-01	 3.000000e+00
-4.847636e-01	 8.158725e-02	 7.500000e-01
-4.847636e-01	 -8.158725e-02	 7.500000e-01
[...]
POINT_DATA 1641
SCALARS pres_adim float 1
LOOKUP_TABLE default
-2.438291e+02
-2.420617e+02
-2.349033e+02
-2.336833e+02
-2.348799e+02
-2.381794e+02
-2.420704e+02
-2.438627e+02
-2.382037e+02
-2.183048e+02
-2.279185e+02
-2.279453e+02
-2.225772e+02
-2.279510e+02
-2.183003e+02
-2.279586e+02
-2.225995e+02
-2.225824e+02
-2.225846e+02
-1.710825e+02
-1.710976e+02
-1.762955e+02
-1.734956e+02
-1.710609e+02
-1.775913e+02
-1.775734e+02
-1.763021e+02
-1.734820e+02
-1.763181e+02
-1.734672e+02
-1.734884e+02
-1.763100e+02
-1.776288e+02
-1.710845e+02
-1.776008e+02
-1.702166e+02
-1.702013e+02
-2.349116e+02
-2.404666e+02
-2.304742e+02
-2.404999e+02
-2.349358e+02
-1.711040e+02
-1.710896e+02
-1.711172e+02
-1.711104e+02
-1.751466e+02
-1.678778e+02
-1.751294e+02
-1.678653e+02
-1.751815e+02
-1.751538e+02
-2.246797e+02
-2.246587e+02
-2.282178e+02
-2.216070e+02
-2.282255e+02
-2.298314e+02
-2.216271e+02
-2.204911e+02
-2.298605e+02
-9.562751e+01
-9.562414e+01
-9.796332e+01
-9.381402e+01
-9.565775e+01
-9.791689e+01
-9.798158e+01
-9.378361e+01
-9.565296e+01
-9.794906e+01
-2.093081e+02
-2.092958e+02
-2.141787e+02
-2.141854e+02
-2.141564e+02
-2.053439e+02
-2.092931e+02
-2.141805e+02
-2.053469e+02
-2.092889e+02
-1.599399e+02
-1.599396e+02
-1.629646e+02
-1.666902e+02
-1.666785e+02
-1.655290e+02
-1.655222e+02
-1.607470e+02
-1.607578e+02
-1.655183e+02
-1.607374e+02
-1.667124e+02
-1.607553e+02
-1.629592e+02
-1.655220e+02
-1.666893e+02
-1.629429e+02
-1.629549e+02
-2.135935e+02
-2.089617e+02
-2.051344e+02
-2.089436e+02
-2.136184e+02
4.020210e-03
-9.784061e-03
-6.679109e-03
1.551269e-03
8.820231e-03
-1.892904e-03
-4.684498e-03
3.596732e-03
4.832349e-03
2.075052e-02
-2.426510e-03
-3.277911e-03
1.653880e-04
1.017761e-02
1.929864e-02
-1.314662e-02
-9.604646e-03
4.149352e-03
-1.530021e+02
-1.469862e+02
-1.529960e+02
-1.497065e+02
-1.497126e+02
-1.496979e+02
-1.497090e+02
-1.530081e+02
-1.470015e+02
-1.529897e+02
-8.970895e+01
-8.968556e+01
-8.968306e+01
-8.970591e+01
-9.180056e+01
-9.176471e+01
-9.180467e+01
-8.800025e+01
-9.177688e+01
-8.801073e+01
-1.879701e+02
-1.919116e+02
-1.906791e+02
-1.855680e+02
-1.846400e+02
-1.855549e+02
-1.906844e+02
-1.919314e+02
-1.879553e+02
-1.749137e+02
-1.749307e+02
-1.713293e+02
-1.682690e+02
-1.713192e+02
-1.713241e+02
-1.682868e+02
-1.749139e+02
-1.713174e+02
-1.749186e+02
-6.869557e-03
-9.079914e-03
3.094245e-03
3.711911e-03
-1.564015e-03
1.892179e-02
-1.177948e-02
4.361991e-03
8.096270e-03
-2.959172e-04
-1.667762e+02
-1.635695e+02
-1.607759e+02
-1.635582e+02
-1.667906e+02
-1.297388e+02
-1.313734e+02
-1.313752e+02
-1.340688e+02
-1.332293e+02
-1.340676e+02
-1.290759e+02
-1.297191e+02
-1.340585e+02
-1.332113e+02
-1.340452e+02
-1.291056e+02
-1.332279e+02
-1.313721e+02
-1.297162e+02
-1.313680e+02
-1.297322e+02
-1.332162e+02
2.675232e-03
-9.917004e-04
-1.474365e-03
5.697089e-03
-3.901811e-03
1.032315e-03
7.804244e-04
-9.574075e-04
8.410895e-03
-8.257529e-03
-6.202830e-03
2.476648e-03
6.792835e-04
3.243185e-03
9.068042e-03
1.588084e-03
-2.717606e-03
-2.925464e-03
-7.163476e+01
-7.040196e+01
-7.164481e+01
-7.163619e+01
-7.164519e+01
-7.312847e+01
-7.037131e+01
-7.311463e+01
-7.310286e+01
-7.308557e+01
-1.343982e+02
-1.366279e+02
-1.391105e+02
-1.383311e+02
-1.366366e+02
-1.350592e+02
-1.350528e+02
-1.383335e+02
-1.391209e+02
9.562715e+01
9.563876e+01
9.796262e+01
9.380194e+01
9.566652e+01
9.792329e+01
9.796976e+01
9.381610e+01
9.565975e+01
9.792613e+01
-1.099464e+02
-1.099460e+02
-1.081494e+02
-1.099455e+02
-1.120103e+02
-1.120132e+02
-1.081098e+02
-1.099460e+02
-1.119877e+02
-1.119795e+02
2.796596e-03
-2.428626e-03
-2.730070e-03
-3.463528e-03
-1.031250e-02
-1.506376e-04
-2.436515e-03
9.437322e-03
-1.080744e-03
8.328334e-03
-1.176373e+02
-1.176365e+02
-1.197005e+02
-1.157285e+02
-1.197093e+02
-1.176313e+02
-1.196885e+02
-1.157510e+02
-1.176316e+02
-1.196905e+02
-1.069929e+02
-1.086705e+02
-1.104526e+02
-1.086761e+02
-1.104585e+02
1.814651e-03
-1.357663e-02
-1.146926e-02
-5.097962e-03
-5.077218e-03
-6.837484e-03
1.581057e-03
-1.306952e-02
1.525181e-02
1.024115e-02
1.762868e-02
-1.504373e-03
-2.469506e-03
-3.289369e-03
9.270301e-03
-1.508441e-02
-4.866090e-03
4.674905e-04
-8.576547e+01
-8.535243e+01
-8.772422e+01
-8.772087e+01
-8.539055e+01
-8.579198e+01
-8.673051e+01
-8.774466e+01
-8.774123e+01
-8.672989e+01
-8.817820e+01
-8.673322e+01
-8.673097e+01
-8.817261e+01
-8.579117e+01
-8.576496e+01
-8.820218e+01
-8.820522e+01
8.970827e+01
8.971314e+01
9.180406e+01
9.177194e+01
8.969188e+01
9.179474e+01
8.800354e+01
9.176597e+01
8.801347e+01
8.968362e+01
-8.278061e+01
-8.239693e+01
-8.156817e+01
-8.073991e+01
-8.035904e+01
-8.073752e+01
-8.156455e+01
-8.239773e+01
-8.278426e+01
-4.602783e+01
-4.603162e+01
-4.680218e+01
-4.680094e+01
-4.529708e+01
-4.676991e+01
-4.534005e+01
-4.603241e+01
-4.676216e+01
-4.603359e+01
-3.697168e-03
-1.138816e-02
-5.773643e-04
4.936554e-03
-6.275128e-03
1.897036e-02
-5.948471e-03
-2.333771e-02
2.368492e-02
-4.586483e-03
-6.370066e+01
-6.464694e+01
-6.465013e+01
-6.462678e+01
-6.462389e+01
-6.370161e+01
-6.370030e+01
-6.370457e+01
-6.278892e+01
-6.275781e+01
1.710799e+02
1.776110e+02
1.711046e+02
1.775760e+02
1.702202e+02
1.776094e+02
1.775934e+02
1.710748e+02
1.710891e+02
1.763065e+02
1.763105e+02
1.734796e+02
1.734998e+02
1.762968e+02
1.702090e+02
1.763106e+02
1.734920e+02
1.734778e+02
7.163269e+01
7.037552e+01
7.164025e+01
7.163889e+01
7.162933e+01
7.311288e+01
7.310624e+01
7.312598e+01
7.037541e+01
7.311550e+01
-6.291834e+01
-6.201344e+01
-6.379448e+01
-6.291691e+01
-6.379775e+01
-6.378669e+01
-6.202593e+01
-6.291757e+01
-6.378732e+01
-6.292009e+01
1.711008e+02
1.711208e+02
1.710996e+02
1.711133e+02
1.751651e+02
1.751314e+02
1.751634e+02
1.678715e+02
1.751477e+02
1.678813e+02
-4.853963e-06
-5.671741e-03
-1.764423e-02
4.210807e-03
-8.514835e-03
-5.043570e-03
6.133822e-03
1.600396e-03
-5.559797e-03
-4.951471e-03
1.633739e-02
1.053758e-02
-2.230559e-02
-1.783201e-02
1.311504e-02
2.127701e-02
-3.066612e-03
-4.053769e-03
1.599435e+02
1.655261e+02
1.655253e+02
1.629603e+02
1.599405e+02
1.667038e+02
1.607625e+02
1.629659e+02
1.655170e+02
1.666790e+02
1.607445e+02
1.607548e+02
1.667005e+02
1.666887e+02
1.607444e+02
1.629503e+02
1.629503e+02
1.655221e+02
-4.322892e+01
-4.341449e+01
-4.243246e+01
-4.223160e+01
-4.243254e+01
-4.284004e+01
-4.323148e+01
-4.341705e+01
-4.340305e+01
-4.284283e+01
-4.284124e+01
-4.322060e+01
-4.340156e+01
-4.244664e+01
-4.225086e+01
-4.283940e+01
-4.322184e+01
-4.244563e+01
1.530091e+02
1.469904e+02
1.529946e+02
1.530038e+02
1.469958e+02
1.529959e+02
1.496997e+02
1.497108e+02
1.497014e+02
1.497077e+02
-4.660201e-03
1.556760e-03
6.109880e-03
-3.252579e-03
1.127129e-02
-3.811997e-03
-1.729797e-02
1.568835e-02
-1.198000e-03
-2.555093e-03
4.602639e+01
4.602405e+01
4.602539e+01
4.678825e+01
4.530828e+01
4.602571e+01
4.679284e+01
4.679685e+01
4.679824e+01
4.530231e+01
-3.264404e+01
-3.263604e+01
-2.133921e+01
-3.348357e+01
-3.348584e+01
-2.135986e+01
-2.192254e+01
-2.164281e+01
-2.192440e+01
-2.164111e+01
-3.308114e+01
-3.308082e+01
-3.347967e+01
-3.308261e+01
-3.348000e+01
-3.308182e+01
-2.164555e+01
-2.191092e+01
-2.164432e+01
-2.190853e+01
1.313700e+02
1.313708e+02
1.290807e+02
1.332235e+02
1.332199e+02
1.340693e+02
1.332239e+02
1.340649e+02
1.313672e+02
1.340615e+02
1.332182e+02
1.340573e+02
1.297197e+02
1.313641e+02
1.297144e+02
1.297256e+02
1.290941e+02
1.297281e+02
1.099416e+02
1.081154e+02
1.120061e+02
1.120103e+02
1.119957e+02
1.119947e+02
1.099382e+02
1.099406e+02
1.081346e+02
1.099417e+02
3.240668e-03
-1.213567e-03
1.885541e-03
-2.219622e+01
-2.248519e+01
4.557921e-03
-1.121303e-03
4.146761e-03
4.464035e-03
2.541061e-03
1.102969e-03
-5.538660e-04
-1.629897e-03
-2.265988e+01
-2.265861e+01
-2.273868e+01
-2.229289e+01
-2.274041e+01
-2.248521e+01
4.871445e-03
-6.873792e-03
-9.862653e-03
-7.163401e-03
-5.312270e-04
6.090048e-03
7.732683e-03
-2.229276e+01
2.182845e+02
2.279425e+02
2.183165e+02
2.279443e+02
2.279394e+02
2.279666e+02
2.225809e+02
2.225896e+02
2.225974e+02
2.225791e+02
8.576658e+01
8.578105e+01
8.535875e+01
8.576485e+01
8.577924e+01
8.672715e+01
8.537718e+01
8.774102e+01
8.819738e+01
8.672504e+01
8.672590e+01
8.820357e+01
8.818552e+01
8.818621e+01
8.772939e+01
8.773696e+01
8.772958e+01
8.672781e+01
2.092976e+02
2.141763e+02
2.141807e+02
2.093056e+02
2.053526e+02
2.092909e+02
2.141673e+02
2.053375e+02
2.092902e+02
2.141888e+02
4.096410e-03
6.973058e-04
-4.867904e-03
2.134748e+01
2.192097e+01
2.164490e+01
2.192187e+01
2.785093e-03
6.932032e-04
2.955586e-03
-1.180273e-03
-1.151428e+01
-1.124735e+01
-1.138996e+01
-1.151656e+01
-1.138949e+01
-1.139076e+01
-1.151331e+01
-1.151421e+01
-1.139076e+01
1.026780e-03
1.053992e-03
2.168643e-03
2.191880e+01
2.164357e+01
2.192135e+01
2.134339e+01
2.164672e+01
-1.125166e+01
2.164342e+01
6.369882e+01
6.276402e+01
6.464416e+01
6.465000e+01
6.369952e+01
6.277936e+01
6.370043e+01
6.463120e+01
6.463316e+01
6.369944e+01
1.749245e+02
1.713151e+02
1.749340e+02
1.749025e+02
1.749127e+02
1.682919e+02
1.713177e+02
1.713270e+02
1.713184e+02
1.682718e+02
-2.068679e-03
4.243676e+01
4.223689e+01
4.207367e-03
1.541206e-03
3.806820e-03
1.697672e-03
4.322403e+01
4.341507e+01
4.284280e+01
4.284195e+01
4.323325e+01
4.341738e+01
4.243502e+01
8.206841e-04
-1.615768e-03
4.298234e-03
2.522121e-03
1.431011e-03
-1.040509e-03
2.187767e-03
-7.017853e-04
2.349883e-03
1.776783e-03
-1.571677e-03
4.284166e+01
4.340291e+01
4.244370e+01
4.224622e+01
4.244183e+01
4.284139e+01
4.322481e+01
4.340457e+01
4.323302e+01
1.846768e-03
-3.480771e-04
1.176287e+02
1.176360e+02
1.197045e+02
1.157287e+02
1.176281e+02
1.197148e+02
1.196765e+02
1.157648e+02
1.196794e+02
1.176318e+02
6.291853e+01
3.308578e+01
2.919341e-03
3.308470e+01
6.203721e+01
6.379812e+01
6.201466e+01
6.291840e+01
6.380224e+01
3.263866e+01
3.348683e+01
3.348669e+01
3.308623e+01
1.139711e+01
1.311349e-04
3.896334e-03
-2.733615e-03
-1.576290e-04
3.984775e-03
-1.912323e-03
-1.039780e-03
3.149886e-03
-3.630826e-03
1.151007e+01
1.150993e+01
1.124945e+01
1.139538e+01
3.308453e+01
3.347350e+01
3.347430e+01
3.264706e+01
6.377626e+01
6.291917e+01
6.377766e+01
6.292024e+01
1.151641e+01
1.124955e+01
1.151399e+01
1.139749e+01
1.139519e+01
2.265819e+01
2.265769e+01
2.229510e+01
2.229531e+01
2.249123e+01
2.249134e+01
2.438344e+02
2.420582e+02
2.349094e+02
2.336919e+02
2.348809e+02
2.381753e+02
2.420661e+02
2.438622e+02
2.382011e+02
2.349072e+02
2.404719e+02
2.304821e+02
2.405001e+02
2.349327e+02
2.246756e+02
2.246548e+02
2.282153e+02
2.216071e+02
2.282230e+02
2.298380e+02
2.216296e+02
2.204964e+02
2.298628e+02
2.136009e+02
2.089558e+02
2.051365e+02
2.089398e+02
2.136230e+02
1.879625e+02
1.919197e+02
1.906790e+02
1.855631e+02
1.846387e+02
1.855521e+02
1.906865e+02
1.919388e+02
1.879516e+02
1.667851e+02
1.635608e+02
1.607719e+02
1.635553e+02
1.668003e+02
1.343936e+02
1.366257e+02
1.391187e+02
1.383333e+02
1.366283e+02
1.350510e+02
1.350474e+02
1.383397e+02
1.391312e+02
1.069883e+02
1.086697e+02
1.104603e+02
1.086697e+02
1.104688e+02
8.278749e+01
8.240154e+01
8.156504e+01
8.073554e+01
8.035611e+01
8.073477e+01
8.156564e+01
8.240458e+01
8.279260e+01
-1.643807e-03
-4.083981e-03
2.827966e-04
3.165996e-04
-1.381888e-03
3.050431e-03
3.289119e-03
1.821059e-03
6.835718e-04
2.273106e+01
2.248972e+01
2.273062e+01
2.248952e+01
2.220147e+01
8.275970e+01
8.238436e+01
8.156938e+01
8.075971e+01
8.038751e+01
8.075738e+01
8.156792e+01
8.238371e+01
8.276020e+01
1.104285e+02
1.086769e+02
1.104295e+02
1.086740e+02
1.070274e+02
1.390877e+02
1.383150e+02
1.366372e+02
1.350829e+02
1.350785e+02
1.383141e+02
1.390915e+02
1.344320e+02
1.366316e+02
1.667568e+02
1.635701e+02
1.608047e+02
1.635621e+02
1.667640e+02
1.879588e+02
1.919001e+02
1.906704e+02
1.855803e+02
1.846554e+02
1.855691e+02
1.906730e+02
1.919147e+02
1.879712e+02
2.135903e+02
2.089631e+02
2.051352e+02
2.089468e+02
2.136123e+02
2.298360e+02
2.216206e+02
2.204774e+02
2.298654e+02
2.282211e+02
2.215988e+02
2.282302e+02
2.246816e+02
2.246615e+02
2.349380e+02
2.404774e+02
2.304486e+02
2.405138e+02
2.349140e+02
2.382059e+02
2.438411e+02
2.420709e+02
2.348877e+02
2.336553e+02
2.348603e+02
2.381819e+02
2.420835e+02
2.438779e+02
2.266615e+01
2.274177e+01
2.273970e+01
2.219677e+01
2.266410e+01
2.229854e+01
2.229771e+01
1.139658e+01
-1.603449e-03
1.150773e+01
1.139481e+01
1.125067e+01
1.150679e+01
1.151427e+01
1.125038e+01
1.151088e+01
-2.382205e-03
6.291891e+01
6.379440e+01
6.202169e+01
6.292046e+01
6.379513e+01
3.348404e+01
3.348208e+01
-1.126426e-03
2.694547e-03
3.015332e-03
-4.130729e-03
-3.130183e-03
2.251850e-03
-4.951079e-03
1.868884e-03
1.139510e+01
3.308517e+01
3.308548e+01
3.347033e+01
3.346965e+01
6.377147e+01
6.204476e+01
6.292127e+01
6.377048e+01
6.292128e+01
3.308670e+01
3.308593e+01
1.139692e+01
3.265110e+01
3.264228e+01
1.176318e+02
1.196978e+02
1.157419e+02
1.197038e+02
1.196692e+02
1.157784e+02
1.176370e+02
1.196669e+02
1.176308e+02
1.176379e+02
4.322787e+01
1.215475e-03
9.861863e-04
-3.213050e-03
4.321824e+01
4.340923e+01
4.284279e+01
4.244335e+01
4.224694e+01
4.244489e+01
4.284483e+01
4.322665e+01
4.340641e+01
2.237476e-03
-1.692351e-03
6.474151e-04
-1.752826e-04
2.465313e-03
-9.401343e-04
-4.916400e-03
-3.792059e-03
7.863447e-04
-8.864888e-04
-4.839287e-03
-1.239254e-03
4.284322e+01
4.245137e+01
4.339538e+01
4.245168e+01
4.225734e+01
4.284433e+01
4.321794e+01
4.339355e+01
8.579874e-04
-1.936492e-03
-1.657200e-03
1.713271e+02
1.682999e+02
1.713223e+02
1.682793e+02
1.713164e+02
1.749162e+02
1.749288e+02
1.749013e+02
1.713243e+02
1.749029e+02
6.370429e+01
6.463566e+01
6.463280e+01
6.370090e+01
6.278214e+01
6.370345e+01
6.461947e+01
6.461606e+01
6.279863e+01
6.370522e+01
-3.253703e-03
-6.854678e-03
2.164581e+01
-1.139277e+01
-1.125647e+01
-1.139365e+01
2.164463e+01
2.135706e+01
2.191422e+01
2.164740e+01
2.190954e+01
1.684619e-03
3.212590e-03
1.971423e-03
-1.139263e+01
-1.151562e+01
-1.151625e+01
-1.139352e+01
-3.451448e-03
-2.924284e-04
9.148919e-05
-3.541808e-03
-3.834499e-03
2.191001e+01
2.164585e+01
2.190892e+01
2.135443e+01
-1.151650e+01
-1.125245e+01
-1.151853e+01
2.141671e+02
2.053455e+02
2.092876e+02
2.141873e+02
2.053321e+02
2.092962e+02
2.093031e+02
2.141766e+02
2.141872e+02
2.093011e+02
8.772943e+01
8.672809e+01
8.771989e+01
8.772912e+01
8.818724e+01
8.818379e+01
8.817258e+01
8.673166e+01
8.673536e+01
8.816562e+01
8.771698e+01
8.538155e+01
8.673290e+01
8.578666e+01
8.580126e+01
8.540110e+01
8.578269e+01
8.579831e+01
2.225959e+02
2.225757e+02
2.225904e+02
2.225843e+02
2.279327e+02
2.279570e+02
2.279537e+02
2.182724e+02
2.279688e+02
2.183020e+02
-2.273958e+01
-2.266093e+01
-2.273976e+01
-6.016185e-03
6.377272e-03
8.905027e-03
7.927548e-03
1.809150e-03
-5.969791e-03
-1.037219e-02
-2.248872e+01
-2.230021e+01
-2.230006e+01
-1.779836e-03
-3.494331e-03
-4.207320e-03
-2.715286e-03
-2.400804e-04
-1.922913e-04
-1.265358e-03
-3.490664e-03
-2.266114e+01
-2.220501e+01
-2.248942e+01
-7.170011e-04
1.211606e-03
-9.355885e-04
1.099478e+02
1.081389e+02
1.099509e+02
1.099453e+02
1.119950e+02
1.119907e+02
1.119836e+02
1.119732e+02
1.081588e+02
1.099424e+02
1.290961e+02
1.297340e+02
1.297274e+02
1.313692e+02
1.297361e+02
1.297456e+02
1.340596e+02
1.332172e+02
1.340528e+02
1.313695e+02
1.340559e+02
1.332093e+02
1.340413e+02
1.332184e+02
1.332145e+02
1.291100e+02
1.313784e+02
1.313758e+02
-3.308478e+01
-3.308583e+01
-2.192469e+01
-2.164450e+01
-2.192726e+01
-2.164407e+01
-2.164657e+01
-2.191401e+01
-2.164654e+01
-2.191185e+01
-2.134214e+01
-3.348287e+01
-3.308596e+01
-3.348266e+01
-3.347908e+01
-3.347691e+01
-3.308670e+01
-2.136201e+01
-3.264744e+01
-3.265511e+01
4.533482e+01
4.677777e+01
4.676888e+01
4.678029e+01
4.533059e+01
4.603346e+01
4.677425e+01
4.603401e+01
4.602840e+01
4.602878e+01
2.319094e-03
5.538289e-05
-1.052978e-02
7.711326e-04
1.781074e-02
-1.609228e-02
1.613137e-03
-1.331563e-03
-4.196591e-03
1.954411e-03
1.497053e+02
1.497128e+02
1.497009e+02
1.497140e+02
1.530016e+02
1.469937e+02
1.529918e+02
1.530058e+02
1.469998e+02
1.529876e+02
-4.284276e+01
-4.244147e+01
-4.322917e+01
-4.322134e+01
-4.284486e+01
-4.245534e+01
-4.244085e+01
-4.224304e+01
-4.341239e+01
-4.284440e+01
-4.322954e+01
-4.341215e+01
-4.340134e+01
-4.245482e+01
-4.226171e+01
-4.284573e+01
-4.321955e+01
-4.339741e+01
1.655224e+02
1.629560e+02
1.629474e+02
1.607369e+02
1.666985e+02
1.666858e+02
1.607448e+02
1.607534e+02
1.667099e+02
1.607533e+02
1.629641e+02
1.655235e+02
1.666886e+02
1.599340e+02
1.629645e+02
1.655260e+02
1.655291e+02
1.599324e+02
2.753590e-03
4.934698e-04
-1.350411e-02
-9.778536e-03
2.387747e-02
1.922747e-02
-1.379838e-02
-1.968062e-02
5.013766e-03
3.706796e-03
-3.459826e-03
-1.879930e-03
3.712706e-03
5.260203e-03
-4.342144e-03
1.615590e-02
5.851840e-04
-1.390370e-03
1.678540e+02
1.751616e+02
1.678615e+02
1.751458e+02
1.751786e+02
1.751542e+02
1.711166e+02
1.711067e+02
1.711153e+02
1.710948e+02
-6.292130e+01
-6.203263e+01
-6.378778e+01
-6.292336e+01
-6.378502e+01
-6.377972e+01
-6.204475e+01
-6.292383e+01
-6.377536e+01
-6.292250e+01
7.310749e+01
7.039625e+01
7.308950e+01
7.311466e+01
7.309792e+01
7.163604e+01
7.164822e+01
7.039569e+01
7.164455e+01
7.163319e+01
1.734851e+02
1.734952e+02
1.763126e+02
1.701979e+02
1.763186e+02
1.734725e+02
1.734934e+02
1.763128e+02
1.710743e+02
1.710838e+02
1.763078e+02
1.776079e+02
1.775916e+02
1.701894e+02
1.776256e+02
1.710786e+02
1.776010e+02
1.710587e+02
-6.280152e+01
-6.277108e+01
-6.370231e+01
-6.370511e+01
-6.370482e+01
-6.464130e+01
-6.463993e+01
-6.462127e+01
-6.461564e+01
-6.370590e+01
3.066942e-03
-1.474561e-02
8.189232e-04
2.592542e-02
-2.121706e-02
7.556552e-03
-1.380042e-03
-2.531237e-03
7.499698e-03
5.771512e-04
-4.602811e+01
-4.680061e+01
-4.529387e+01
-4.603032e+01
-4.680138e+01
-4.533660e+01
-4.677141e+01
-4.676559e+01
-4.603190e+01
-4.603141e+01
-8.277012e+01
-8.239048e+01
-8.157012e+01
-8.075523e+01
-8.038268e+01
-8.075718e+01
-8.157168e+01
-8.238856e+01
-8.276624e+01
8.969242e+01
8.799698e+01
9.180513e+01
8.800430e+01
9.177631e+01
8.968396e+01
9.180171e+01
9.176971e+01
8.970376e+01
8.971499e+01
-8.816955e+01
-8.816223e+01
-8.580181e+01
-8.577600e+01
-8.819492e+01
-8.672977e+01
-8.673429e+01
-8.819120e+01
-8.771761e+01
-8.673303e+01
-8.771434e+01
-8.673394e+01
-8.577214e+01
-8.536521e+01
-8.773650e+01
-8.773634e+01
-8.540259e+01
-8.580022e+01
-1.082076e-03
8.061271e-04
-7.137220e-03
1.811627e-02
3.112300e-03
-1.042220e-03
-1.377097e-03
-1.009276e-02
-1.033288e-02
-1.524815e-02
1.503854e-02
3.703450e-03
-7.932490e-04
6.045710e-03
4.062725e-03
7.763737e-03
1.172318e-02
-2.358089e-03
-1.104382e+02
-1.086766e+02
-1.104347e+02
-1.086774e+02
-1.070198e+02
-1.196882e+02
-1.157528e+02
-1.176378e+02
-1.196851e+02
-1.176367e+02
-1.196728e+02
-1.157745e+02
-1.196691e+02
-1.176375e+02
-1.176354e+02
-3.187175e-03
3.467635e-03
-6.824686e-03
2.576642e-03
-3.512425e-03
6.757590e-03
6.210231e-04
6.362829e-03
-8.027658e-04
6.364128e-04
-1.120038e+02
-1.119974e+02
-1.099499e+02
-1.081598e+02
-1.119770e+02
-1.119686e+02
-1.099463e+02
-1.081204e+02
-1.099430e+02
-1.099472e+02
9.797573e+01
9.378178e+01
9.566515e+01
9.793555e+01
9.797564e+01
9.379338e+01
9.565024e+01
9.794129e+01
9.562640e+01
9.563712e+01
-1.390957e+02
-1.383200e+02
-1.366356e+02
-1.350743e+02
-1.350753e+02
-1.383189e+02
-1.390964e+02
-1.344238e+02
-1.366335e+02
-7.312475e+01
-7.311286e+01
-7.310316e+01
-7.039782e+01
-7.308592e+01
-7.164365e+01
-7.163437e+01
-7.036485e+01
-7.164469e+01
-7.163530e+01
2.362970e-03
4.692330e-03
-6.102240e-03
4.172047e-03
1.644970e-03
-2.002786e-03
2.279634e-03
-6.432886e-03
4.478809e-03
3.980133e-03
1.740543e-04
-1.396901e-03
-2.104456e-03
-2.905700e-03
-5.583659e-04
-2.550259e-03
1.846486e-03
-5.855529e-03
-1.332240e+02
-1.313683e+02
-1.297169e+02
-1.297381e+02
-1.313703e+02
-1.332103e+02
-1.290819e+02
-1.340665e+02
-1.332217e+02
-1.340549e+02
-1.291114e+02
-1.297429e+02
-1.340488e+02
-1.332063e+02
-1.340386e+02
-1.313728e+02
-1.313782e+02
-1.297268e+02
-1.667635e+02
-1.635670e+02
-1.607978e+02
-1.635621e+02
-1.667687e+02
-2.958095e-04
-3.080043e-04
-8.961553e-03
1.131394e-02
-1.596624e-02
8.055458e-03
4.890198e-03
-6.063636e-03
3.710691e-03
2.520868e-03
-1.749109e+02