# vtk DataFile Version 3.0
Unstructured Grid Example
ASCII
DATASET UNSTRUCTURED_GRID
POINTS 832 float
-1	 0	 0
-1	 0	 3.750000e-01
-1	 0	 7.500000e-01
-1	 0	 1.125000e+00
-1	 0	 1.500000e+00
-1	 0	 1.875000e+00
-1	 0	 2.250000e+00
-1	 0	 2.625000e+00
-1	 0	 3
-9.875000e-01	 0	 0
-9.875000e-01	 0	 1.500000e+00
-9.875000e-01	 0	 3
-9.875000e-01	 0	 2.250000e+00
-9.875000e-01	 0	 7.500000e-01
-9.833054e-01	 -1.819631e-01	 7.500000e-01
-9.833054e-01	 -1.819631e-01	 0
-9.833054e-01	 -1.819631e-01	 1.500000e+00
-9.833054e-01	 -1.819631e-01	 3.000000e+00
-9.833054e-01	 1.819631e-01	 2.250000e+00
-9.833054e-01	 1.819631e-01	 0
-9.833054e-01	 1.819631e-01	 1.500000e+00
-9.833054e-01	 1.819631e-01	 3.000000e+00
-9.833054e-01	 1.819631e-01	 7.500000e-01
-9.833054e-01	 -1.819631e-01	 2.250000e+00
-9.750000e-01	 0	 7.500000e-01
-9.750000e-01	 0	 1.125000e+00
-9.750000e-01	 0	 0
-9.750000e-01	 0	 3.750000e-01
-9.750000e-01	 0	 1.875000e+00
-9.750000e-01	 0	 2.625000e+00
-9.750000e-01	 0	 3
-9.750000e-01	 0	 1.500000e+00
-9.750000e-01	 0	 2.250000e+00
-9.625000e-01	 0	 1.500000e+00
-9.625000e-01	 0	 2.250000e+00
-9.625000e-01	 0	 0
-9.625000e-01	 0	 7.500000e-01
-9.625000e-01	 0	 3
-9.587227e-01	 -1.774140e-01	 0
-9.587227e-01	 -1.774140e-01	 3.000000e+00
-9.587227e-01	 -1.774140e-01	 1.500000e+00
-9.587227e-01	 1.774140e-01	 0
-9.587227e-01	 1.774140e-01	 3.000000e+00
-9.587227e-01	 1.774140e-01	 1.500000e+00
-9.587227e-01	 1.774140e-01	 7.500000e-01
-9.587227e-01	 -1.774140e-01	 7.500000e-01
-9.587227e-01	 -1.774140e-01	 2.250000e+00
-9.587227e-01	 1.774140e-01	 2.250000e+00
-9.500000e-01	 0	 0
-9.500000e-01	 0	 3.750000e-01
-9.500000e-01	 0	 1.125000e+00
-9.500000e-01	 0	 1.500000e+00
-9.500000e-01	 0	 1.875000e+00
-9.500000e-01	 0	 2.250000e+00
-9.500000e-01	 0	 2.625000e+00
-9.500000e-01	 0	 3
-9.500000e-01	 0	 7.500000e-01
-9.341401e-01	 -1.728649e-01	 1.500000e+00
-9.341401e-01	 -1.728649e-01	 0
-9.341401e-01	 -1.728649e-01	 3.000000e+00
-9.341401e-01	 1.728649e-01	 2.250000e+00
-9.341401e-01	 1.728649e-01	 0
-9.341401e-01	 1.728649e-01	 1.500000e+00
-9.341401e-01	 1.728649e-01	 3.000000e+00
-9.341401e-01	 -1.728649e-01	 7.500000e-01
-9.341401e-01	 -1.728649e-01	 2.250000e+00
-9.341401e-01	 1.728649e-01	 7.500000e-01
-9.297883e-01	 -3.680947e-01	 1.125000e+00
-9.297883e-01	 -3.680947e-01	 0
-9.297883e-01	 -3.680947e-01	 7.500000e-01
-9.297883e-01	 -3.680947e-01	 1.500000e+00
-9.297883e-01	 -3.680947e-01	 1.875000e+00
-9.297883e-01	 -3.680947e-01	 2.250000e+00
-9.297883e-01	 -3.680947e-01	 2.625000e+00
-9.297883e-01	 -3.680947e-01	 3.000000e+00
-9.297883e-01	 -3.680947e-01	 3.750000e-01
-9.297883e-01	 3.680947e-01	 3.750000e-01
-9.297883e-01	 3.680947e-01	 2.250000e+00
-9.297883e-01	 3.680947e-01	 2.625000e+00
-9.297883e-01	 3.680947e-01	 0
-9.297883e-01	 3.680947e-01	 7.500000e-01
-9.297883e-01	 3.680947e-01	 1.500000e+00
-9.297883e-01	 3.680947e-01	 1.875000e+00
-9.297883e-01	 3.680947e-01	 3.000000e+00
-9.297883e-01	 3.680947e-01	 1.125000e+00
-9.181659e-01	 3.634935e-01	 7.500000e-01
-9.181659e-01	 -3.634935e-01	 0
-9.181659e-01	 -3.634935e-01	 7.500000e-01
-9.181659e-01	 -3.634935e-01	 2.250000e+00
-9.181659e-01	 -3.634935e-01	 3
-9.181659e-01	 3.634935e-01	 0
-9.181659e-01	 3.634935e-01	 2.250000e+00
-9.181659e-01	 3.634935e-01	 3
-9.181659e-01	 -3.634935e-01	 1.500000e+00
-9.181659e-01	 3.634935e-01	 1.500000e+00
-9.065436e-01	 -3.588923e-01	 1.125000e+00
-9.065436e-01	 -3.588923e-01	 2.625000e+00
-9.065436e-01	 -3.588923e-01	 0
-9.065436e-01	 -3.588923e-01	 3.750000e-01
-9.065436e-01	 -3.588923e-01	 1.500000e+00
-9.065436e-01	 -3.588923e-01	 3
-9.065436e-01	 3.588923e-01	 2.625000e+00
-9.065436e-01	 3.588923e-01	 1.125000e+00
-9.065436e-01	 3.588923e-01	 0
-9.065436e-01	 3.588923e-01	 3.750000e-01
-9.065436e-01	 3.588923e-01	 3
-9.065436e-01	 -3.588923e-01	 7.500000e-01
-9.065436e-01	 -3.588923e-01	 1.875000e+00
-9.065436e-01	 3.588923e-01	 1.875000e+00
-9.065436e-01	 3.588923e-01	 1.500000e+00
-9.065436e-01	 -3.588923e-01	 2.250000e+00
-9.065436e-01	 3.588923e-01	 7.500000e-01
-9.065436e-01	 3.588923e-01	 2.250000e+00
-8.949212e-01	 3.542912e-01	 1.500000e+00
-8.949212e-01	 -3.542912e-01	 1.500000e+00
-8.949212e-01	 -3.542912e-01	 0
-8.949212e-01	 -3.542912e-01	 3.000000e+00
-8.949212e-01	 3.542912e-01	 0
-8.949212e-01	 3.542912e-01	 3.000000e+00
-8.949212e-01	 -3.542912e-01	 2.250000e+00
-8.949212e-01	 -3.542912e-01	 7.500000e-01
-8.949212e-01	 3.542912e-01	 2.250000e+00
-8.949212e-01	 3.542912e-01	 7.500000e-01
-8.832989e-01	 -3.496900e-01	 1.125000e+00
-8.832989e-01	 -3.496900e-01	 1.875000e+00
-8.832989e-01	 -3.496900e-01	 2.625000e+00
-8.832989e-01	 -3.496900e-01	 2.250000e+00
-8.832989e-01	 3.496900e-01	 1.125000e+00
-8.832989e-01	 -3.496900e-01	 0
-8.832989e-01	 -3.496900e-01	 3.000000e+00
-8.832989e-01	 -3.496900e-01	 3.750000e-01
-8.832989e-01	 -3.496900e-01	 7.500000e-01
-8.832989e-01	 3.496900e-01	 3.750000e-01
-8.832989e-01	 3.496900e-01	 7.500000e-01
-8.832989e-01	 3.496900e-01	 2.250000e+00
-8.832989e-01	 3.496900e-01	 2.625000e+00
-8.832989e-01	 3.496900e-01	 0
-8.832989e-01	 3.496900e-01	 1.875000e+00
-8.832989e-01	 3.496900e-01	 3.000000e+00
-8.832989e-01	 -3.496900e-01	 1.500000e+00
-8.832989e-01	 3.496900e-01	 1.500000e+00
-8.369955e-01	 -5.472098e-01	 0
-8.369955e-01	 -5.472098e-01	 7.500000e-01
-8.369955e-01	 -5.472098e-01	 1.500000e+00
-8.369955e-01	 -5.472098e-01	 2.250000e+00
-8.369955e-01	 -5.472098e-01	 3
-8.369955e-01	 5.472098e-01	 0
-8.369955e-01	 5.472098e-01	 7.500000e-01
-8.369955e-01	 5.472098e-01	 1.500000e+00
-8.369955e-01	 5.472098e-01	 2.250000e+00
-8.369955e-01	 5.472098e-01	 3
-8.160706e-01	 -5.335295e-01	 7.500000e-01
-8.160706e-01	 5.335295e-01	 7.500000e-01
-8.160706e-01	 -5.335295e-01	 1.500000e+00
-8.160706e-01	 -5.335295e-01	 2.250000e+00
-8.160706e-01	 5.335295e-01	 1.500000e+00
-8.160706e-01	 5.335295e-01	 2.250000e+00
-8.160706e-01	 -5.335295e-01	 0
-8.160706e-01	 -5.335295e-01	 3.000000e+00
-8.160706e-01	 5.335295e-01	 0
-8.160706e-01	 5.335295e-01	 3.000000e+00
-7.951457e-01	 -5.198493e-01	 7.500000e-01
-7.951457e-01	 5.198493e-01	 7.500000e-01
-7.951457e-01	 -5.198493e-01	 0
-7.951457e-01	 -5.198493e-01	 1.500000e+00
-7.951457e-01	 -5.198493e-01	 2.250000e+00
-7.951457e-01	 -5.198493e-01	 3
-7.951457e-01	 5.198493e-01	 0
-7.951457e-01	 5.198493e-01	 1.500000e+00
-7.951457e-01	 5.198493e-01	 2.250000e+00
-7.951457e-01	 5.198493e-01	 3
-7.071068e-01	 -7.071068e-01	 0
-7.071068e-01	 -7.071068e-01	 3.750000e-01
-7.071068e-01	 -7.071068e-01	 7.500000e-01
-7.071068e-01	 -7.071068e-01	 1.125000e+00
-7.071068e-01	 -7.071068e-01	 1.500000e+00
-7.071068e-01	 -7.071068e-01	 1.875000e+00
-7.071068e-01	 -7.071068e-01	 2.250000e+00
-7.071068e-01	 -7.071068e-01	 2.625000e+00
-7.071068e-01	 -7.071068e-01	 3.000000e+00
-7.071068e-01	 7.071068e-01	 0
-7.071068e-01	 7.071068e-01	 3.750000e-01
-7.071068e-01	 7.071068e-01	 7.500000e-01
-7.071068e-01	 7.071068e-01	 1.125000e+00
-7.071068e-01	 7.071068e-01	 1.500000e+00
-7.071068e-01	 7.071068e-01	 1.875000e+00
-7.071068e-01	 7.071068e-01	 2.250000e+00
-7.071068e-01	 7.071068e-01	 2.625000e+00
-7.071068e-01	 7.071068e-01	 3.000000e+00
-6.982679e-01	 -6.982679e-01	 7.500000e-01
-6.982679e-01	 6.982679e-01	 7.500000e-01
-6.982679e-01	 -6.982679e-01	 0
-6.982679e-01	 -6.982679e-01	 2.250000e+00
-6.982679e-01	 -6.982679e-01	 3.000000e+00
-6.982679e-01	 6.982679e-01	 0
-6.982679e-01	 6.982679e-01	 2.250000e+00
-6.982679e-01	 6.982679e-01	 3.000000e+00
-6.982679e-01	 -6.982679e-01	 1.500000e+00
-6.982679e-01	 6.982679e-01	 1.500000e+00
-6.894291e-01	 -6.894291e-01	 3.750000e-01
-6.894291e-01	 -6.894291e-01	 2.625000e+00
-6.894291e-01	 -6.894291e-01	 0
-6.894291e-01	 -6.894291e-01	 1.500000e+00
-6.894291e-01	 -6.894291e-01	 2.250000e+00
-6.894291e-01	 -6.894291e-01	 3.000000e+00
-6.894291e-01	 6.894291e-01	 3.750000e-01
-6.894291e-01	 6.894291e-01	 2.625000e+00
-6.894291e-01	 -6.894291e-01	 1.875000e+00
-6.894291e-01	 6.894291e-01	 1.875000e+00
-6.894291e-01	 -6.894291e-01	 7.500000e-01
-6.894291e-01	 -6.894291e-01	 1.125000e+00
-6.894291e-01	 6.894291e-01	 0
-6.894291e-01	 6.894291e-01	 1.500000e+00
-6.894291e-01	 6.894291e-01	 2.250000e+00
-6.894291e-01	 6.894291e-01	 3.000000e+00
-6.894291e-01	 6.894291e-01	 7.500000e-01
-6.894291e-01	 6.894291e-01	 1.125000e+00
-6.805903e-01	 6.805903e-01	 7.500000e-01
-6.805903e-01	 -6.805903e-01	 7.500000e-01
-6.805903e-01	 -6.805903e-01	 0
-6.805903e-01	 -6.805903e-01	 1.500000e+00
-6.805903e-01	 -6.805903e-01	 3.000000e+00
-6.805903e-01	 6.805903e-01	 0
-6.805903e-01	 6.805903e-01	 1.500000e+00
-6.805903e-01	 6.805903e-01	 3.000000e+00
-6.805903e-01	 6.805903e-01	 2.250000e+00
-6.805903e-01	 -6.805903e-01	 2.250000e+00
-6.717514e-01	 -6.717514e-01	 2.625000e+00
-6.717514e-01	 6.717514e-01	 2.625000e+00
-6.717514e-01	 -6.717514e-01	 0
-6.717514e-01	 -6.717514e-01	 3.750000e-01
-6.717514e-01	 -6.717514e-01	 7.500000e-01
-6.717514e-01	 -6.717514e-01	 1.125000e+00
-6.717514e-01	 -6.717514e-01	 1.875000e+00
-6.717514e-01	 -6.717514e-01	 3.000000e+00
-6.717514e-01	 -6.717514e-01	 2.250000e+00
-6.717514e-01	 6.717514e-01	 1.500000e+00
-6.717514e-01	 6.717514e-01	 0
-6.717514e-01	 6.717514e-01	 3.750000e-01
-6.717514e-01	 6.717514e-01	 7.500000e-01
-6.717514e-01	 6.717514e-01	 1.125000e+00
-6.717514e-01	 6.717514e-01	 1.875000e+00
-6.717514e-01	 6.717514e-01	 3.000000e+00
-6.717514e-01	 -6.717514e-01	 1.500000e+00
-6.717514e-01	 6.717514e-01	 2.250000e+00
-5.472098e-01	 -8.369955e-01	 0
-5.472098e-01	 -8.369955e-01	 7.500000e-01
-5.472098e-01	 -8.369955e-01	 1.500000e+00
-5.472098e-01	 -8.369955e-01	 2.250000e+00
-5.472098e-01	 -8.369955e-01	 3
-5.472098e-01	 8.369955e-01	 0
-5.472098e-01	 8.369955e-01	 7.500000e-01
-5.472098e-01	 8.369955e-01	 1.500000e+00
-5.472098e-01	 8.369955e-01	 2.250000e+00
-5.472098e-01	 8.369955e-01	 3
-5.335295e-01	 -8.160706e-01	 1.500000e+00
-5.335295e-01	 -8.160706e-01	 2.250000e+00
-5.335295e-01	 8.160706e-01	 0
-5.335295e-01	 8.160706e-01	 3.000000e+00
[...]
POINT_DATA 832
VECTORS displacement float
0	 0	 3.377867e-12
1.803804e-11	 3.325639e-17	 2.285650e-12
2.440691e-11	 6.091971e-17	 -1.199111e-17
1.803799e-11	 7.797086e-17	 -2.285672e-12
-8.730672e-17	 8.293251e-17	 -3.377885e-12
-1.803815e-11	 7.469718e-17	 -2.285661e-12
-2.440704e-11	 5.636638e-17	 8.460985e-18
-1.803811e-11	 2.998216e-17	 2.285676e-12
0	 0	 3.377896e-12
0	 0	 2.685643e-12
-8.745494e-17	 8.568253e-17	 -2.685660e-12
0	 0	 2.685669e-12
-2.452728e-11	 5.759381e-17	 7.609004e-18
2.452716e-11	 6.358184e-17	 -1.113905e-17
1.947430e-11	 1.124674e-12	 -3.987667e-18
0	 0	 2.708142e-12
-4.270507e-17	 8.570538e-17	 -2.708148e-12
0	 0	 2.708149e-12
-1.947440e-11	 1.124668e-12	 1.443187e-17
0	 0	 2.708119e-12
-1.221647e-16	 8.676024e-17	 -2.708146e-12
0	 0	 2.708166e-12
1.947422e-11	 -1.124545e-12	 -1.863106e-17
-1.947436e-11	 -1.124553e-12	 9.304867e-19
2.459979e-11	 6.624042e-17	 -1.028794e-17
1.809867e-11	 8.407563e-17	 -1.379834e-12
0	 0	 2.000877e-12
1.809871e-11	 3.633261e-17	 1.379814e-12
-1.809883e-11	 7.893356e-17	 -1.379824e-12
-1.809878e-11	 3.119001e-17	 1.379837e-12
0	 0	 2.000901e-12
-8.757598e-17	 8.844440e-17	 -2.000893e-12
-2.459991e-11	 5.884154e-17	 6.757943e-18
-8.767185e-17	 9.117843e-17	 -1.314894e-12
-2.466652e-11	 6.007202e-17	 5.905683e-18
0	 0	 1.314880e-12
2.466640e-11	 6.887689e-17	 -9.435633e-18
0	 0	 1.314902e-12
0	 0	 1.655488e-12
0	 0	 1.655494e-12
-4.398917e-17	 9.238205e-17	 -1.655494e-12
0	 0	 1.655469e-12
0	 0	 1.655509e-12
-1.216415e-16	 9.073492e-17	 -1.655493e-12
1.980799e-11	 4.621543e-13	 -1.598758e-17
1.980806e-11	 -4.620164e-13	 -3.490687e-18
-1.980812e-11	 4.621471e-13	 4.336432e-19
-1.980816e-11	 -4.620260e-13	 1.178803e-17
0	 0	 6.204860e-13
1.806839e-11	 3.939291e-17	 4.705338e-13
1.806834e-11	 9.014738e-17	 -4.705502e-13
-8.773950e-17	 9.392007e-17	 -6.204991e-13
-1.806851e-11	 8.314455e-17	 -4.705426e-13
-2.467708e-11	 6.129810e-17	 5.051323e-18
-1.806846e-11	 3.238958e-17	 4.705520e-13
0	 0	 6.205053e-13
2.467696e-11	 7.152850e-17	 -8.581198e-18
-4.519191e-17	 9.912034e-17	 -6.043877e-13
0	 0	 6.043826e-13
0	 0	 6.043867e-13
-2.003448e-11	 -2.089875e-12	 9.141277e-18
0	 0	 6.043677e-13
-1.210001e-16	 9.471569e-17	 -6.043878e-13
0	 0	 6.043995e-13
2.003438e-11	 -2.089862e-12	 -2.994893e-18
-2.003444e-11	 2.090003e-12	 -6.201281e-20
2.003431e-11	 2.090009e-12	 -1.334119e-17
1.674574e-12	 -2.225815e-12	 -9.390759e-14
0	 0	 1.813148e-13
2.290444e-12	 -3.162817e-12	 5.209541e-18
1.322221e-17	 1.008957e-16	 -1.813083e-13
-1.674549e-12	 2.226001e-12	 -9.391467e-14
-2.290425e-12	 3.162959e-12	 -7.997688e-18
-1.674556e-12	 2.225947e-12	 9.389980e-14
0	 0	 1.812961e-13
1.674567e-12	 -2.225870e-12	 9.391689e-14
1.674492e-12	 2.225952e-12	 9.387864e-14
-2.290518e-12	 -3.162831e-12	 1.796112e-17
-1.674604e-12	 -2.225879e-12	 9.393180e-14
0	 0	 1.812724e-13
2.290313e-12	 3.162965e-12	 -2.306057e-17
-1.453954e-16	 9.458645e-17	 -1.813065e-13
-1.674683e-12	 -2.225828e-12	 -9.389931e-14
0	 0	 1.813305e-13
1.674413e-12	 2.226003e-12	 -9.392133e-14
2.793002e-12	 4.442337e-12	 -2.140651e-17
0	 0	 1.462822e-13
2.793132e-12	 -4.442185e-12	 4.723065e-18
-2.793115e-12	 4.442334e-12	 -7.511269e-18
0	 0	 1.462649e-13
0	 0	 1.462434e-13
-2.793207e-12	 -4.442201e-12	 1.630738e-17
0	 0	 1.462967e-13
1.178763e-17	 1.046930e-16	 -1.462763e-13
-1.452222e-16	 9.581570e-17	 -1.462752e-13
2.363630e-12	 -3.971035e-12	 -6.343451e-14
-2.363616e-12	 3.971176e-12	 6.342740e-14
0	 0	 1.109751e-13
2.363625e-12	 -3.971093e-12	 6.344217e-14
1.035744e-17	 1.084916e-16	 -1.109700e-13
0	 0	 1.109592e-13
-2.363663e-12	 -3.971104e-12	 6.345500e-14
2.363472e-12	 3.971231e-12	 -6.344688e-14
0	 0	 1.109400e-13
2.363551e-12	 3.971179e-12	 6.340988e-14
0	 0	 1.109886e-13
3.291774e-12	 -5.708195e-12	 4.235861e-18
-2.363611e-12	 3.971235e-12	 -6.344063e-14
-2.363742e-12	 -3.971052e-12	 -6.342820e-14
-1.450034e-16	 9.700958e-17	 -1.109694e-13
-3.291759e-12	 5.708349e-12	 -7.024152e-18
3.291645e-12	 5.708350e-12	 -1.975441e-17
-3.291850e-12	 -5.708213e-12	 1.465558e-17
-1.447505e-16	 9.818934e-17	 -7.506687e-14
8.929495e-18	 1.122502e-16	 -7.506688e-14
0	 0	 7.507137e-14
0	 0	 7.505682e-14
0	 0	 7.503978e-14
0	 0	 7.508377e-14
-3.786021e-12	 6.961010e-12	 -6.537279e-18
3.786034e-12	 -6.960851e-12	 3.748900e-18
-3.786110e-12	 -6.960870e-12	 1.300205e-17
3.785906e-12	 6.961009e-12	 -1.810057e-17
3.049968e-12	 -5.705632e-12	 -3.199589e-14
-3.049953e-12	 5.705846e-12	 -3.200106e-14
-3.049958e-12	 5.705783e-12	 3.198945e-14
-4.288004e-12	 8.229924e-12	 -6.050392e-18
3.049812e-12	 5.705838e-12	 -3.200690e-14
0	 0	 3.914185e-14
0	 0	 3.912868e-14
3.049964e-12	 -5.705695e-12	 3.200192e-14
4.288014e-12	 -8.229760e-12	 3.261953e-18
3.049891e-12	 5.705784e-12	 3.197559e-14
4.287888e-12	 8.229922e-12	 -1.644224e-17
-4.288092e-12	 -8.229781e-12	 1.134404e-17
-3.050002e-12	 -5.705707e-12	 3.201266e-14
0	 0	 3.911387e-14
-3.050081e-12	 -5.705654e-12	 -3.199155e-14
0	 0	 3.915317e-14
7.503679e-18	 1.160304e-16	 -3.913805e-14
-1.444379e-16	 9.935636e-17	 -3.913862e-14
0	 0	 -2.480331e-12
-1.338029e-11	 -1.194922e-11	 1.378397e-17
6.779335e-17	 1.291243e-16	 2.480350e-12
1.338039e-11	 1.194940e-11	 -1.655635e-17
0	 0	 -2.480374e-12
0	 0	 -2.480387e-12
-1.338046e-11	 1.194939e-11	 -2.441005e-17
-1.469634e-16	 9.871099e-17	 2.480350e-12
1.338025e-11	 -1.194925e-11	 1.820265e-17
0	 0	 -2.480326e-12
-1.255132e-11	 -1.326480e-11	 1.130868e-17
-1.255149e-11	 1.326497e-11	 -2.099793e-17
6.414755e-17	 1.350199e-16	 1.519406e-12
1.255141e-11	 1.326499e-11	 -1.408106e-17
-1.481922e-16	 9.737008e-17	 1.519406e-12
1.255128e-11	 -1.326483e-11	 1.479034e-17
0	 0	 -1.519391e-12
0	 0	 -1.519427e-12
0	 0	 -1.519437e-12
0	 0	 -1.519387e-12
-1.162465e-11	 -1.453847e-11	 8.830920e-18
-1.162481e-11	 1.453864e-11	 -1.758383e-17
0	 0	 -5.588099e-13
6.038139e-17	 1.408994e-16	 5.588216e-13
1.162473e-11	 1.453867e-11	 -1.160330e-17
0	 0	 -5.588388e-13
0	 0	 -5.588471e-13
-1.491798e-16	 9.586111e-17	 5.588204e-13
1.162460e-11	 -1.453851e-11	 1.137605e-17
0	 0	 -5.588061e-13
0	 0	 -3.305404e-12
-1.225344e-11	 -1.225342e-11	 -2.197691e-12
-1.642910e-11	 -1.642906e-11	 1.939968e-17
-1.225338e-11	 -1.225333e-11	 2.197726e-12
1.051057e-16	 1.612732e-16	 3.305430e-12
1.225358e-11	 1.225363e-11	 2.197704e-12
1.642925e-11	 1.642929e-11	 -2.243502e-17
1.225352e-11	 1.225354e-11	 -2.197745e-12
0	 0	 -3.305463e-12
0	 0	 -3.305461e-12
-1.225353e-11	 1.225351e-11	 -2.197744e-12
-1.642926e-11	 1.642923e-11	 -2.128959e-17
-1.225359e-11	 1.225355e-11	 2.197704e-12
-1.189185e-16	 7.995347e-17	 3.305429e-12
1.225337e-11	 -1.225340e-11	 2.197723e-12
1.642910e-11	 -1.642912e-11	 1.381498e-17
1.225344e-11	 -1.225345e-11	 -2.197698e-12
0	 0	 -3.305411e-12
-1.650925e-11	 -1.650921e-11	 1.757241e-17
-1.650941e-11	 1.650938e-11	 -1.993015e-17
0	 0	 -2.632184e-12
1.650940e-11	 1.650944e-11	 -2.060780e-17
0	 0	 -2.632238e-12
0	 0	 -2.632236e-12
1.650924e-11	 -1.650927e-11	 1.245555e-17
0	 0	 -2.632190e-12
1.035784e-16	 1.632792e-16	 2.632207e-12
-1.213148e-16	 7.793475e-17	 2.632206e-12
-1.229284e-11	 -1.229282e-11	 -1.338307e-12
1.229292e-11	 1.229294e-11	 -1.338352e-12
0	 0	 -1.965124e-12
1.020127e-16	 1.652112e-16	 1.965145e-12
1.656097e-11	 1.656102e-11	 -1.878398e-17
0	 0	 -1.965173e-12
-1.229293e-11	 1.229291e-11	 -1.338352e-12
1.229284e-11	 -1.229285e-11	 -1.338313e-12
1.229298e-11	 1.229303e-11	 1.338317e-12
1.229277e-11	 -1.229281e-11	 1.338333e-12
-1.656083e-11	 -1.656078e-11	 1.574851e-17
-1.229279e-11	 -1.229273e-11	 1.338336e-12
0	 0	 -1.965172e-12
-1.236610e-16	 7.586865e-17	 1.965143e-12
1.656082e-11	 -1.656084e-11	 1.109915e-17
0	 0	 -1.965130e-12
-1.656099e-11	 1.656095e-11	 -1.857375e-17
-1.229300e-11	 1.229295e-11	 1.338317e-12
-1.661164e-11	 1.661159e-11	 -1.721591e-17
-1.661147e-11	 -1.661142e-11	 1.392268e-17
0	 0	 -1.297888e-12
1.004296e-16	 1.671044e-16	 1.297907e-12
0	 0	 -1.297932e-12
0	 0	 -1.297932e-12
-1.259708e-16	 7.380666e-17	 1.297905e-12
0	 0	 -1.297894e-12
1.661146e-11	 -1.661149e-11	 9.741309e-18
1.661162e-11	 1.661166e-11	 -1.695825e-17
1.227814e-11	 1.227817e-11	 -4.760895e-13
1.227806e-11	 -1.227807e-11	 -4.760578e-13
0	 0	 -6.230470e-13
-1.227807e-11	 -1.227804e-11	 -4.760531e-13
-1.662788e-11	 -1.662783e-11	 1.209095e-17
-1.227801e-11	 -1.227795e-11	 4.760758e-13
1.227820e-11	 1.227826e-11	 4.760607e-13
0	 0	 -6.230855e-13
1.662802e-11	 1.662807e-11	 -1.512657e-17
-1.282307e-16	 7.167778e-17	 6.230612e-13
0	 0	 -6.230858e-13
-1.227816e-11	 1.227813e-11	 -4.760899e-13
-1.662805e-11	 1.662800e-11	 -1.585270e-17
-1.227823e-11	 1.227817e-11	 4.760597e-13
1.227799e-11	 -1.227803e-11	 4.760730e-13
0	 0	 -6.230516e-13
9.876808e-17	 1.689484e-16	 6.230632e-13
1.662787e-11	 -1.662790e-11	 8.378107e-18
0	 0	 -2.480321e-12
-1.194924e-11	 -1.338021e-11	 2.063969e-17
1.111256e-16	 1.761378e-16	 2.480349e-12
1.194939e-11	 1.338046e-11	 -2.420863e-17
0	 0	 -2.480385e-12
0	 0	 -2.480370e-12
-1.194937e-11	 1.338035e-11	 -1.525644e-17
-7.835395e-17	 3.386911e-17	 2.480346e-12
1.194926e-11	 -1.338031e-11	 6.432406e-18
0	 0	 -2.480340e-12
1.126420e-16	 1.755099e-16	 1.519406e-12
1.326498e-11	 1.255149e-11	 -2.021212e-17
0	 0	 -1.519425e-12
0	 0	 -1.519398e-12
-8.562452e-17	 2.932638e-17	 1.519403e-12
1.326483e-11	 -1.255134e-11	 5.064355e-18
-1.326482e-11	 -1.255124e-11	 1.664332e-17
0	 0	 -1.519383e-12
0	 0	 -1.519435e-12
-1.326495e-11	 1.255138e-11	 -1.388804e-17
-1.453864e-11	 1.162470e-11	 -1.251738e-17
-1.453849e-11	 -1.162457e-11	 1.264604e-17
0	 0	 -5.588043e-13
1.139123e-16	 1.745006e-16	 5.588212e-13
1.453865e-11	 1.162481e-11	 -1.621473e-17
0	 0	 -5.588452e-13
0	 0	 -5.588387e-13
-9.287242e-17	 2.464003e-17	 5.588184e-13
1.453850e-11	 -1.162466e-11	 3.694047e-18
0	 0	 -5.588158e-13
-2.225829e-12	 1.674695e-12	 -9.390244e-14
-2.225950e-12	 -1.674597e-12	 -9.391681e-14
0	 0	 1.813304e-13
-3.162829e-12	 2.290537e-12	 1.579159e-17
8.736442e-17	 1.411205e-16	 -1.813093e-13
2.225991e-12	 -1.674432e-12	 -9.392172e-14
0	 0	 1.812796e-13
0	 0	 1.812985e-13
-3.162922e-12	 -2.290465e-12	 -7.864904e-18
-4.281770e-17	 -3.312514e-17	 -1.813126e-13
2.225872e-12	 1.674535e-12	 -9.391379e-14
3.162862e-12	 2.290418e-12	 -2.303979e-18
2.225895e-12	 1.674553e-12	 9.390876e-14
0	 0	 1.813064e-13
-2.225877e-12	 1.674618e-12	 9.393102e-14
3.162952e-12	 -2.290337e-12	 -2.012325e-17
2.225944e-12	 -1.674509e-12	 9.388448e-14
-2.225927e-12	 -1.674579e-12	 9.390150e-14
9.152387e-17	 1.398323e-16	 -1.462773e-13
-4.747456e-17	 -3.500313e-17	 -1.462806e-13
-4.442198e-12	 2.793225e-12	 1.421130e-17
0	 0	 1.462962e-13
4.442327e-12	 -2.793027e-12	 -1.854325e-17
0	 0	 1.462498e-13
0	 0	 1.462662e-13
-4.442296e-12	 -2.793155e-12	 -8.010798e-18
4.442229e-12	 2.793105e-12	 -2.158441e-18
0	 0	 1.462745e-13
5.708342e-12	 -3.291672e-12	 -1.696826e-17
5.708238e-12	 3.291747e-12	 -2.014587e-18
-3.971184e-12	 -2.363659e-12	 -6.344321e-14
3.971117e-12	 2.363611e-12	 6.343538e-14
0	 0	 1.109875e-13
-3.971100e-12	 2.363676e-12	 6.345354e-14
0	 0	 1.109457e-13
9.563315e-17	 1.384548e-16	 -1.109709e-13
0	 0	 1.109596e-13
-3.971156e-12	 -2.363639e-12	 6.342739e-14
-5.211353e-17	 -3.684566e-17	 -1.109741e-13
0	 0	 1.109682e-13
-3.971048e-12	 2.363751e-12	 -6.343045e-14
3.971225e-12	 -2.363493e-12	 -6.344651e-14
-5.708207e-12	 3.291867e-12	 1.263599e-17
-5.708312e-12	 -3.291799e-12	 -8.155002e-18
3.971089e-12	 2.363591e-12	 -6.343990e-14
3.971173e-12	 -2.363569e-12	 6.341475e-14
9.970073e-17	 1.370588e-16	 -7.506777e-14
6.961004e-12	 -3.785933e-12	 -1.539187e-17
6.960892e-12	 3.786006e-12	 -1.869676e-18
0	 0	 7.505614e-14
0	 0	 7.506523e-14
-5.672065e-17	 -3.866446e-17	 -7.507086e-14
0	 0	 7.508214e-14
0	 0	 7.504473e-14
-6.960863e-12	 3.786127e-12	 1.105927e-17
-6.960973e-12	 -3.786061e-12	 -8.300275e-18
-5.705645e-12	 3.050089e-12	 -3.199291e-14
0	 0	 3.915101e-14
5.705837e-12	 -3.049837e-12	 -3.200576e-14
0	 0	 3.911808e-14
1.037425e-16	 1.355439e-16	 -3.913887e-14
0	 0	 3.912697e-14
0	 0	 3.913648e-14
-5.705797e-12	 -3.050003e-12	 -3.200407e-14
5.705684e-12	 3.049927e-12	 -3.200046e-14
5.705717e-12	 3.049949e-12	 3.199646e-14
-5.705701e-12	 3.050015e-12	 3.201052e-14
-8.229772e-12	 4.288108e-12	 9.475550e-18
8.229919e-12	 -4.287916e-12	 -1.380846e-17
5.705781e-12	 -3.049910e-12	 3.197950e-14
-6.137271e-17	 -4.046772e-17	 -3.914190e-14
-5.705764e-12	 -3.049981e-12	 3.198774e-14
8.229801e-12	 4.287986e-12	 -1.723524e-18
-8.229888e-12	 -4.288044e-12	 -8.446791e-18
1.124656e-12	 1.947438e-11	 7.475127e-18
1.124588e-12	 -1.947439e-11	 -1.628670e-18
0	 0	 2.708159e-12
6.299900e-17	 6.662095e-17	 -2.708150e-12
0	 0	 2.708130e-12
0	 0	 2.708147e-12
-2.903332e-17	 -9.260972e-17	 -2.708153e-12
0	 0	 2.708136e-12
-1.124567e-12	 -1.947428e-11	 -1.273525e-17
-1.124629e-12	 1.947426e-11	 -9.805112e-18
-4.620316e-13	 1.980814e-11	 5.991872e-18
0	 0	 1.655502e-12
0	 0	 1.655478e-12
-4.621105e-13	 -1.980816e-11	 -3.249413e-18
4.620621e-13	 1.980803e-11	 -8.183794e-18
0	 0	 1.655491e-12
0	 0	 1.655484e-12
4.621367e-13	 -1.980805e-11	 -1.125168e-17
-3.423563e-17	 -9.363201e-17	 -1.655498e-12
7.428128e-17	 6.469423e-17	 -1.655495e-12
-3.954486e-17	 -9.430835e-17	 -6.043921e-13
0	 0	 6.043938e-13
8.561370e-17	 6.259361e-17	 -6.043890e-13
0	 0	 6.043736e-13
0	 0	 6.043819e-13
0	 0	 6.043795e-13
2.089996e-12	 -2.003437e-11	 -9.765552e-18
-2.089875e-12	 2.003446e-11	 4.506078e-18
-2.089965e-12	 -2.003448e-11	 -4.866575e-18
2.089909e-12	 2.003435e-11	 -6.566042e-18
0	 0	 3.377883e-12
2.086071e-17	 1.803807e-11	 2.285664e-12
3.856487e-17	 2.440697e-11	 -1.973398e-18
4.995198e-17	 1.803806e-11	 -2.285668e-12
5.406562e-17	 -2.344410e-17	 -3.377888e-12
4.937253e-17	 -1.803810e-11	 -2.285669e-12
3.789658e-17	 -2.440700e-11	 -4.305334e-18
2.028159e-17	 -1.803809e-11	 2.285661e-12
0	 0	 3.377880e-12
0	 0	 2.685658e-12
6.060579e-17	 -2.351187e-17	 -2.685662e-12
0	 0	 2.685654e-12
4.208400e-17	 -2.452725e-11	 -4.527584e-18
4.362694e-17	 2.452721e-11	 -1.751173e-18
4.865523e-17	 2.459984e-11	 -1.531687e-18
6.256106e-17	 1.809873e-11	 -1.379830e-12
0	 0	 2.000891e-12
2.639579e-17	 1.809875e-11	 1.379827e-12
6.091630e-17	 -1.809878e-11	 -1.379832e-12
2.475141e-17	 -1.809876e-11	 1.379823e-12
0	 0	 2.000886e-12
6.711224e-17	 -2.353660e-17	 -2.000895e-12
4.625750e-17	 -2.459987e-11	 -4.747108e-18
7.356709e-17	 -2.354218e-17	 -1.314896e-12
5.039431e-17	 -2.466648e-11	 -4.967290e-18
0	 0	 1.314893e-12
5.364725e-17	 2.466645e-11	 -1.311541e-18
0	 0	 1.314888e-12
0	 0	 6.204974e-13
3.189667e-17	 1.806842e-11	 4.705445e-13
7.509076e-17	 1.806841e-11	 -4.705470e-13
8.006754e-17	 -2.349673e-17	 -6.205008e-13
7.238514e-17	 -1.806845e-11	 -4.705492e-13
5.455666e-17	 -2.467705e-11	 -5.189611e-18
2.919149e-17	 -1.806844e-11	 4.705392e-13
0	 0	 6.204916e-13
5.867822e-17	 2.467701e-11	 -1.089244e-18
-2.252531e-17	 -2.467710e-11	 -3.046032e-18
0	 0	 6.204961e-13
-1.237271e-17	 -1.806847e-11	 4.705434e-13
-2.912391e-17	 -1.806853e-11	 -4.705497e-13
-3.098525e-17	 -1.109720e-16	 -6.205040e-13
-2.806421e-17	 1.806832e-11	 -4.705534e-13
-2.129189e-17	 2.467695e-11	 -9.510974e-18
-1.131345e-17	 1.806838e-11	 4.705346e-13
0	 0	 6.204869e-13
0	 0	 1.314893e-12
-2.291763e-17	 -2.466654e-11	 -1.982458e-18
0	 0	 1.314881e-12
-3.120639e-17	 -1.110056e-16	 -1.314900e-12
-2.121273e-17	 2.466638e-11	 -1.057450e-17
-3.142229e-17	 -1.109086e-16	 -2.000898e-12
-2.113420e-17	 2.459977e-11	 -1.163160e-17
0	 0	 2.000893e-12
-1.278108e-17	 -1.809879e-11	 1.379829e-12
-2.820794e-17	 1.809865e-11	 -1.379837e-12
-1.122892e-17	 1.809871e-11	 1.379815e-12
0	 0	 2.000878e-12
-2.330190e-17	 -2.459993e-11	 -9.253229e-19
-2.976042e-17	 -1.809886e-11	 -1.379831e-12
-2.368938e-17	 -2.452730e-11	 1.296613e-19
-2.106265e-17	 2.452715e-11	 -1.268655e-17
0	 0	 2.685662e-12
-3.164539e-17	 -1.107647e-16	 -2.685665e-12
0	 0	 2.685644e-12
0	 0	 3.377889e-12
-1.319732e-17	 -1.803812e-11	 2.285669e-12
-2.409163e-17	 -2.440706e-11	 1.190959e-18
-3.041401e-17	 -1.803818e-11	 -2.285668e-12
-3.187737e-17	 -1.105102e-16	 -3.377891e-12
-2.836604e-17	 1.803797e-11	 -2.285676e-12
-2.098889e-17	 2.440690e-11	 -1.374780e-17
-1.114953e-17	 1.803803e-11	 2.285649e-12
0	 0	 3.377868e-12
2.089995e-12	 2.003434e-11	 -6.411056e-18
-2.089883e-12	 -2.003448e-11	 -9.920686e-19
2.089918e-12	 -2.003448e-11	 -2.295018e-18
-2.089952e-12	 2.003434e-11	 -1.128120e-17
0	 0	 6.043787e-13
0	 0	 6.043863e-13
0	 0	 6.043860e-13
-2.381107e-17	 -9.219732e-17	 -6.043932e-13
0	 0	 6.043733e-13
7.905963e-17	 -9.522704e-17	 -6.043899e-13
-2.870742e-17	 -9.144687e-17	 -1.655500e-12
7.188311e-17	 -9.687442e-17	 -1.655496e-12
-4.621047e-13	 1.980802e-11	 -1.309557e-17
0	 0	 1.655482e-12
0	 0	 1.655495e-12
4.621380e-13	 1.980802e-11	 -8.468759e-18
-4.620363e-13	 -1.980816e-11	 1.066225e-18
0	 0	 1.655495e-12
0	 0	 1.655477e-12
4.620641e-13	 -1.980815e-11	 -4.801840e-19
1.124655e-12	 -1.947439e-11	 3.126180e-18
1.124587e-12	 1.947426e-11	 -1.491158e-17
0	 0	 2.708133e-12
6.467852e-17	 -9.811434e-17	 -2.708150e-12
0	 0	 2.708152e-12
0	 0	 2.708152e-12
-3.350989e-17	 -9.044225e-17	 -2.708154e-12
0	 0	 2.708129e-12
-1.124564e-12	 1.947425e-11	 -1.052814e-17
-1.124634e-12	 -1.947439e-11	 1.336275e-18
8.229905e-12	 4.287913e-12	 -1.018617e-17
-8.229790e-12	 -4.288094e-12	 1.521078e-18
5.705774e-12	 3.049908e-12	 3.198497e-14
8.102655e-17	 -1.277786e-16	 -3.914094e-14
5.705735e-12	 -3.049983e-12	 3.199587e-14
8.229836e-12	 -4.288047e-12	 -3.044891e-18
-8.229845e-12	 4.287982e-12	 -1.145767e-17
-5.705740e-12	 3.049947e-12	 3.198466e-14
5.705818e-12	 3.049838e-12	 -3.200484e-14
-5.705667e-12	 -3.050076e-12	 -3.199827e-14
-5.705711e-12	 -3.050006e-12	 3.200082e-14
0	 0	 3.912399e-14
0	 0	 3.914055e-14
-6.085968e-18	 -4.613446e-17	 -3.914425e-14
0	 0	 3.913570e-14
-5.705743e-12	 3.049922e-12	 -3.200709e-14
0	 0	 3.912380e-14
5.705732e-12	 -3.050008e-12	 -3.200245e-14
6.960992e-12	 3.785931e-12	 -1.162022e-17
6.960922e-12	 -3.786064e-12	 -2.603390e-18
0	 0	 7.506538e-14
0	 0	 7.505224e-14
8.039102e-17	 -1.280015e-16	 -7.506965e-14
0	 0	 7.505067e-14
0	 0	 7.507129e-14
-6.960879e-12	 -3.786112e-12	 2.954691e-18
-6.960936e-12	 3.786001e-12	 -1.189943e-17
-9.802891e-18	 -4.461999e-17	 -7.507331e-14
-3.971140e-12	 2.363609e-12	 6.342286e-14
5.708334e-12	 3.291671e-12	 -1.304739e-17
-3.971065e-12	 -2.363736e-12	 -6.343562e-14
5.708262e-12	 -3.291803e-12	 -2.162274e-18
-3.971147e-12	 2.363585e-12	 -6.344679e-14
3.971122e-12	 -2.363665e-12	 -6.344127e-14
0	 0	 1.109516e-13
3.971169e-12	 2.363567e-12	 6.342025e-14
7.970261e-17	 -1.281062e-16	 -1.109726e-13
0	 0	 1.109763e-13
-1.349071e-17	 -4.312072e-17	 -1.109766e-13
0	 0	 1.109693e-13
3.971129e-12	 -2.363642e-12	 6.343619e-14
0	 0	 1.109549e-13
3.971213e-12	 2.363497e-12	 -6.344510e-14
-3.971108e-12	 -2.363666e-12	 6.344313e-14
-5.708221e-12	 -3.291852e-12	 4.381424e-18
-5.708281e-12	 3.291742e-12	 -1.234082e-17
0	 0	 1.462558e-13
4.442321e-12	 2.793028e-12	 -1.447272e-17
-4.442209e-12	 -2.793209e-12	 5.806335e-18
0	 0	 1.462845e-13
0	 0	 1.462765e-13
-4.442272e-12	 2.793100e-12	 -1.278134e-17
0	 0	 1.462609e-13
4.442248e-12	 -2.793159e-12	 -1.722022e-18
7.900108e-17	 -1.281753e-16	 -1.462789e-13
-1.721464e-17	 -4.160211e-17	 -1.462832e-13
2.225943e-12	 1.674508e-12	 9.389000e-14
2.225901e-12	 -1.674582e-12	 9.391098e-14
-3.162904e-12	 2.290413e-12	 -1.322134e-17
-2.225917e-12	 1.674551e-12	 9.389553e-14
0	 0	 1.812856e-13
3.162949e-12	 2.290339e-12	 -1.590392e-17
7.826896e-17	 -1.281381e-16	 -1.813107e-13
-2.225840e-12	 -1.674678e-12	 -9.390742e-14
-3.162839e-12	 -2.290520e-12	 7.237105e-18
-2.225882e-12	 -1.674608e-12	 9.391990e-14
0	 0	 1.813184e-13
0	 0	 1.813093e-13
3.162875e-12	 -2.290469e-12	 -1.282270e-18
-2.096725e-17	 -4.007392e-17	 -1.813154e-13
-2.225929e-12	 1.674529e-12	 -9.392096e-14
0	 0	 1.812924e-13
2.225985e-12	 1.674438e-12	 -9.391981e-14
2.225890e-12	 -1.674604e-12	 -9.391456e-14
0	 0	 -5.588380e-13
6.974366e-17	 -1.210105e-16	 5.588179e-13
-1.453852e-11	 1.162461e-11	 2.146034e-18
0	 0	 -5.588178e-13
0	 0	 -5.588254e-13
1.375932e-17	 5.231565e-19	 5.588148e-13