# vtk DataFile Version 3.0
Unstructured Grid Example
ASCII
DATASET UNSTRUCTURED_GRID
POINTS 1641 float
-9.500000e-01	 0	 0
-9.500000e-01	 0	 3.750000e-01
-9.500000e-01	 0	 1.125000e+00
-9.500000e-01	 0	 1.500000e+00
-9.500000e-01	 0	 1.875000e+00
-9.500000e-01	 0	 2.250000e+00
-9.500000e-01	 0	 2.625000e+00
-9.500000e-01	 0	 3
-9.500000e-01	 0	 7.500000e-01
-9.341401e-01	 -1.728649e-01	 1.500000e+00
-9.341401e-01	 -1.728649e-01	 0
-9.341401e-01	 -1.728649e-01	 3.000000e+00
-9.341401e-01	 1.728649e-01	 2.250000e+00
-9.341401e-01	 1.728649e-01	 0
-9.341401e-01	 1.728649e-01	 1.500000e+00
-9.341401e-01	 1.728649e-01	 3.000000e+00
-9.341401e-01	 -1.728649e-01	 7.500000e-01
-9.341401e-01	 -1.728649e-01	 2.250000e+00
-9.341401e-01	 1.728649e-01	 7.500000e-01
-8.832989e-01	 -3.496900e-01	 1.125000e+00
-8.832989e-01	 -3.496900e-01	 1.875000e+00
-8.832989e-01	 -3.496900e-01	 2.625000e+00
-8.832989e-01	 -3.496900e-01	 2.250000e+00
-8.832989e-01	 3.496900e-01	 1.125000e+00
-8.832989e-01	 -3.496900e-01	 0
-8.832989e-01	 -3.496900e-01	 3.000000e+00
-8.832989e-01	 -3.496900e-01	 3.750000e-01
-8.832989e-01	 -3.496900e-01	 7.500000e-01
-8.832989e-01	 3.496900e-01	 3.750000e-01
-8.832989e-01	 3.496900e-01	 7.500000e-01
-8.832989e-01	 3.496900e-01	 2.250000e+00
-8.832989e-01	 3.496900e-01	 2.625000e+00
-8.832989e-01	 3.496900e-01	 0
-8.832989e-01	 3.496900e-01	 1.875000e+00
-8.832989e-01	 3.496900e-01	 3.000000e+00
-8.832989e-01	 -3.496900e-01	 1.500000e+00
-8.832989e-01	 3.496900e-01	 1.500000e+00
-8.787500e-01	 0	 2.250000e+00
-8.787500e-01	 0	 0
-8.787500e-01	 0	 1.500000e+00
-8.787500e-01	 0	 3
-8.787500e-01	 0	 7.500000e-01
-8.149622e-01	 -3.223238e-01	 7.500000e-01
-8.149622e-01	 3.223238e-01	 7.500000e-01
-8.149622e-01	 -3.223238e-01	 2.250000e+00
-8.149622e-01	 3.223238e-01	 2.250000e+00
-8.149622e-01	 -3.223238e-01	 0
-8.149622e-01	 -3.223238e-01	 1.500000e+00
-8.149622e-01	 -3.223238e-01	 3
-8.149622e-01	 3.223238e-01	 1.500000e+00
-8.149622e-01	 3.223238e-01	 0
-8.149622e-01	 3.223238e-01	 3
-8.075000e-01	 0	 7.500000e-01
-8.075000e-01	 0	 2.250000e+00
-8.075000e-01	 0	 3.750000e-01
-8.075000e-01	 0	 1.875000e+00
-8.075000e-01	 0	 2.625000e+00
-8.075000e-01	 0	 0
-8.075000e-01	 0	 1.125000e+00
-8.075000e-01	 0	 1.500000e+00
-8.075000e-01	 0	 3
-7.951457e-01	 -5.198493e-01	 7.500000e-01
-7.951457e-01	 5.198493e-01	 7.500000e-01
-7.951457e-01	 -5.198493e-01	 0
-7.951457e-01	 -5.198493e-01	 1.500000e+00
-7.951457e-01	 -5.198493e-01	 2.250000e+00
-7.951457e-01	 -5.198493e-01	 3
-7.951457e-01	 5.198493e-01	 0
-7.951457e-01	 5.198493e-01	 1.500000e+00
-7.951457e-01	 5.198493e-01	 2.250000e+00
-7.951457e-01	 5.198493e-01	 3
-7.894916e-01	 -1.451644e-01	 7.500000e-01
-7.894916e-01	 1.451644e-01	 7.500000e-01
-7.894916e-01	 1.451644e-01	 0
-7.894916e-01	 1.451644e-01	 3
-7.894916e-01	 -1.451644e-01	 0
-7.894916e-01	 -1.451644e-01	 1.500000e+00
-7.894916e-01	 -1.451644e-01	 2.250000e+00
-7.894916e-01	 -1.451644e-01	 3
-7.894916e-01	 1.451644e-01	 1.500000e+00
-7.894916e-01	 1.451644e-01	 2.250000e+00
-7.430021e-01	 -2.929055e-01	 1.500000e+00
-7.430021e-01	 2.929055e-01	 1.500000e+00
-7.430021e-01	 -2.929055e-01	 2.250000e+00
-7.430021e-01	 -2.929055e-01	 0
-7.430021e-01	 -2.929055e-01	 3.000000e+00
-7.430021e-01	 2.929055e-01	 3.750000e-01
-7.430021e-01	 -2.929055e-01	 3.750000e-01
-7.430021e-01	 -2.929055e-01	 1.125000e+00
-7.430021e-01	 -2.929055e-01	 1.875000e+00
-7.430021e-01	 -2.929055e-01	 2.625000e+00
-7.430021e-01	 2.929055e-01	 1.125000e+00
-7.430021e-01	 2.929055e-01	 0
-7.430021e-01	 2.929055e-01	 1.875000e+00
-7.430021e-01	 2.929055e-01	 2.250000e+00
-7.430021e-01	 2.929055e-01	 2.625000e+00
-7.430021e-01	 2.929055e-01	 3.000000e+00
-7.430021e-01	 2.929055e-01	 7.500000e-01
-7.430021e-01	 -2.929055e-01	 7.500000e-01
-7.362500e-01	 0	 0
-7.362500e-01	 0	 7.500000e-01
-7.362500e-01	 0	 1.500000e+00
-7.362500e-01	 0	 2.250000e+00
-7.362500e-01	 0	 3
-6.717514e-01	 -6.717514e-01	 2.625000e+00
-6.717514e-01	 6.717514e-01	 2.625000e+00
-6.717514e-01	 -6.717514e-01	 0
-6.717514e-01	 -6.717514e-01	 3.750000e-01
-6.717514e-01	 -6.717514e-01	 7.500000e-01
-6.717514e-01	 -6.717514e-01	 1.125000e+00
-6.717514e-01	 -6.717514e-01	 1.875000e+00
-6.717514e-01	 -6.717514e-01	 3.000000e+00
-6.717514e-01	 -6.717514e-01	 2.250000e+00
-6.717514e-01	 6.717514e-01	 1.500000e+00
-6.717514e-01	 6.717514e-01	 0
-6.717514e-01	 6.717514e-01	 3.750000e-01
-6.717514e-01	 6.717514e-01	 7.500000e-01
-6.717514e-01	 6.717514e-01	 1.125000e+00
-6.717514e-01	 6.717514e-01	 1.875000e+00
-6.717514e-01	 6.717514e-01	 3.000000e+00
-6.717514e-01	 -6.717514e-01	 1.500000e+00
-6.717514e-01	 6.717514e-01	 2.250000e+00
-6.682985e-01	 -2.618048e-01	 0
-6.682985e-01	 -2.618048e-01	 1.500000e+00
-6.682985e-01	 -2.618048e-01	 3
-6.682985e-01	 -2.618048e-01	 7.500000e-01
-6.682985e-01	 -2.618048e-01	 2.250000e+00
-6.682985e-01	 2.618048e-01	 7.500000e-01
-6.682985e-01	 2.618048e-01	 2.250000e+00
-6.682985e-01	 2.618048e-01	 0
-6.682985e-01	 2.618048e-01	 1.500000e+00
-6.682985e-01	 2.618048e-01	 3
-6.665713e-01	 -4.348738e-01	 2.250000e+00
-6.665713e-01	 -4.348738e-01	 7.500000e-01
-6.665713e-01	 4.348738e-01	 7.500000e-01
-6.665713e-01	 4.348738e-01	 2.250000e+00
-6.665713e-01	 -4.348738e-01	 0
-6.665713e-01	 -4.348738e-01	 3
-6.665713e-01	 4.348738e-01	 0
-6.665713e-01	 4.348738e-01	 1.500000e+00
-6.665713e-01	 4.348738e-01	 3
-6.665713e-01	 -4.348738e-01	 1.500000e+00
-6.650000e-01	 0	 7.500000e-01
-6.650000e-01	 0	 0
-6.650000e-01	 0	 3.750000e-01
-6.650000e-01	 0	 1.125000e+00
-6.650000e-01	 0	 1.500000e+00
-6.650000e-01	 0	 1.875000e+00
-6.650000e-01	 0	 2.625000e+00
-6.650000e-01	 0	 3
-6.650000e-01	 0	 2.250000e+00
-6.383743e-01	 -1.144482e-01	 0
-6.383743e-01	 -1.144482e-01	 3.000000e+00
-6.383743e-01	 -1.144482e-01	 7.500000e-01
-6.383743e-01	 -1.144482e-01	 1.500000e+00
-6.383743e-01	 -1.144482e-01	 2.250000e+00
-6.383743e-01	 1.144482e-01	 7.500000e-01
-6.383743e-01	 1.144482e-01	 1.500000e+00
-6.383743e-01	 1.144482e-01	 0
-6.383743e-01	 1.144482e-01	 2.250000e+00
-6.383743e-01	 1.144482e-01	 3.000000e+00
-6.189903e-01	 -6.189903e-01	 0
-6.189903e-01	 -6.189903e-01	 1.500000e+00
-6.189903e-01	 -6.189903e-01	 3.000000e+00
-6.189903e-01	 6.189903e-01	 2.250000e+00
-6.189903e-01	 6.189903e-01	 0
-6.189903e-01	 6.189903e-01	 1.500000e+00
-6.189903e-01	 6.189903e-01	 3.000000e+00
-6.189903e-01	 -6.189903e-01	 2.250000e+00
-6.189903e-01	 -6.189903e-01	 7.500000e-01
-6.189903e-01	 6.189903e-01	 7.500000e-01
-5.937500e-01	 0	 0
-5.937500e-01	 0	 7.500000e-01
-5.937500e-01	 0	 1.500000e+00
-5.937500e-01	 0	 2.250000e+00
-5.937500e-01	 0	 3
-5.917666e-01	 2.294176e-01	 1.875000e+00
-5.917666e-01	 2.294176e-01	 2.250000e+00
-5.917666e-01	 -2.294176e-01	 2.250000e+00
-5.917666e-01	 -2.294176e-01	 0
-5.917666e-01	 -2.294176e-01	 2.625000e+00
-5.917666e-01	 -2.294176e-01	 3
-5.917666e-01	 -2.294176e-01	 1.500000e+00
-5.917666e-01	 -2.294176e-01	 1.875000e+00
-5.917666e-01	 2.294176e-01	 0
-5.917666e-01	 2.294176e-01	 2.625000e+00
-5.917666e-01	 2.294176e-01	 3
-5.917666e-01	 2.294176e-01	 1.500000e+00
-5.917666e-01	 -2.294176e-01	 3.750000e-01
-5.917666e-01	 -2.294176e-01	 7.500000e-01
-5.917666e-01	 -2.294176e-01	 1.125000e+00
-5.917666e-01	 2.294176e-01	 7.500000e-01
-5.917666e-01	 2.294176e-01	 1.125000e+00
-5.917666e-01	 2.294176e-01	 3.750000e-01
-5.620800e-01	 5.620800e-01	 1.125000e+00
-5.620800e-01	 -5.620800e-01	 1.125000e+00
-5.620800e-01	 -5.620800e-01	 3.750000e-01
-5.620800e-01	 -5.620800e-01	 7.500000e-01
-5.620800e-01	 -5.620800e-01	 1.875000e+00
-5.620800e-01	 -5.620800e-01	 2.625000e+00
-5.620800e-01	 5.620800e-01	 3.750000e-01
-5.620800e-01	 5.620800e-01	 7.500000e-01
-5.620800e-01	 5.620800e-01	 1.875000e+00
-5.620800e-01	 -5.620800e-01	 0
-5.620800e-01	 -5.620800e-01	 1.500000e+00
-5.620800e-01	 -5.620800e-01	 2.250000e+00
-5.620800e-01	 -5.620800e-01	 3
-5.620800e-01	 5.620800e-01	 0
-5.620800e-01	 5.620800e-01	 1.500000e+00
-5.620800e-01	 5.620800e-01	 2.250000e+00
-5.620800e-01	 5.620800e-01	 3
-5.620800e-01	 5.620800e-01	 2.625000e+00
-5.250231e-01	 -3.396892e-01	 7.500000e-01
-5.250231e-01	 3.396892e-01	 1.500000e+00
-5.250231e-01	 3.396892e-01	 2.250000e+00
-5.250231e-01	 3.396892e-01	 7.500000e-01
-5.250231e-01	 -3.396892e-01	 2.250000e+00
-5.250231e-01	 -3.396892e-01	 0
-5.250231e-01	 -3.396892e-01	 1.500000e+00
-5.250231e-01	 -3.396892e-01	 3.000000e+00
-5.250231e-01	 3.396892e-01	 0
-5.250231e-01	 3.396892e-01	 3.000000e+00
-5.225000e-01	 0	 1.500000e+00
-5.225000e-01	 0	 2.250000e+00
-5.225000e-01	 0	 0
-5.225000e-01	 0	 3.750000e-01
-5.225000e-01	 0	 7.500000e-01
-5.225000e-01	 0	 1.125000e+00
-5.225000e-01	 0	 1.875000e+00
-5.225000e-01	 0	 2.625000e+00
-5.225000e-01	 0	 3
-5.198493e-01	 7.951457e-01	 7.500000e-01
-5.198493e-01	 -7.951457e-01	 7.500000e-01
-5.198493e-01	 -7.951457e-01	 0
-5.198493e-01	 -7.951457e-01	 1.500000e+00
-5.198493e-01	 -7.951457e-01	 2.250000e+00
-5.198493e-01	 -7.951457e-01	 3
-5.198493e-01	 7.951457e-01	 0
-5.198493e-01	 7.951457e-01	 1.500000e+00
-5.198493e-01	 7.951457e-01	 2.250000e+00
-5.198493e-01	 7.951457e-01	 3
-5.143216e-01	 -1.961513e-01	 2.250000e+00
-5.143216e-01	 1.961513e-01	 7.500000e-01
-5.143216e-01	 1.961513e-01	 1.500000e+00
-5.143216e-01	 -1.961513e-01	 7.500000e-01
-5.143216e-01	 -1.961513e-01	 0
-5.143216e-01	 -1.961513e-01	 3.000000e+00
-5.143216e-01	 -1.961513e-01	 1.500000e+00
-5.143216e-01	 1.961513e-01	 2.250000e+00
-5.143216e-01	 1.961513e-01	 0
-5.143216e-01	 1.961513e-01	 3.000000e+00
-5.020120e-01	 -5.020120e-01	 7.500000e-01
-5.020120e-01	 -5.020120e-01	 1.500000e+00
-5.020120e-01	 5.020120e-01	 7.500000e-01
-5.020120e-01	 5.020120e-01	 1.500000e+00
-5.020120e-01	 -5.020120e-01	 0
-5.020120e-01	 -5.020120e-01	 2.250000e+00
-5.020120e-01	 -5.020120e-01	 3.000000e+00
-5.020120e-01	 5.020120e-01	 0
-5.020120e-01	 5.020120e-01	 2.250000e+00
-5.020120e-01	 5.020120e-01	 3.000000e+00
-4.847636e-01	 8.158725e-02	 7.500000e-01
-4.847636e-01	 -8.158725e-02	 7.500000e-01
[...]
POINT_DATA 1641
SCALARS pres_adim float 1
LOOKUP_TABLE default
-1.805785e+02
-1.671056e+02
-6.921742e+01
-5.507180e-12
6.921742e+01
1.276883e+02
1.671056e+02
1.805785e+02
-1.276883e+02
-4.123349e-09
-1.805175e+02
1.805175e+02
1.276451e+02
-1.805175e+02
5.129820e-09
1.805175e+02
-1.276451e+02
1.276451e+02
-1.276451e+02
-6.919105e+01
6.919105e+01
1.670420e+02
1.275961e+02
-6.919105e+01
-1.804481e+02
1.804481e+02
-1.670420e+02
-1.275961e+02
-1.670420e+02
-1.275961e+02
1.275961e+02
1.670420e+02
-1.804481e+02
6.919105e+01
1.804481e+02
-3.088142e-09
5.840272e-09
1.225745e+02
-1.733464e+02
-9.839928e-11
1.733464e+02
-1.225745e+02
-1.221750e+02
-1.221750e+02
1.221750e+02
1.221750e+02
-1.727815e+02
-3.269147e-09
1.727815e+02
5.854190e-09
-1.727815e+02
1.727815e+02
-1.059820e+02
1.059820e+02
-1.387564e+02
5.747481e+01
1.387564e+02
-1.498812e+02
-5.747481e+01
-7.208125e-10
1.498812e+02
-1.276199e+02
-1.276199e+02
-1.804818e+02
3.055197e-09
1.276199e+02
1.804818e+02
-1.804818e+02
1.695040e-10
1.276199e+02
1.804818e+02
-1.044520e+02
-1.044520e+02
-1.477175e+02
1.477175e+02
-1.477175e+02
-4.868769e-09
1.044520e+02
1.477175e+02
4.266730e-09
1.044520e+02
-4.255750e-09
5.823965e-09
1.030996e+02
-1.458048e+02
1.458048e+02
-1.350927e+02
-1.350927e+02
-5.595721e+01
5.595721e+01
1.350927e+02
-5.595721e+01
-1.458048e+02
5.595721e+01
1.030996e+02
1.350927e+02
1.458048e+02
-1.030996e+02
-1.030996e+02
-1.121914e+02
-7.933128e+01
-1.482821e-09
7.933128e+01
1.121914e+02
1.670116e+02
1.670116e+02
-1.803863e+02
-1.670116e+02
-1.275524e+02
-6.917845e+01
6.917845e+01
1.803863e+02
1.275524e+02
-7.125128e-09
-1.803863e+02
-1.670116e+02
-1.275524e+02
-6.917845e+01
6.917845e+01
1.803863e+02
7.528787e-09
1.275524e+02
-1.000984e+02
-5.488864e-09
1.000984e+02
-7.078023e+01
7.078023e+01
-7.078023e+01
7.078023e+01
-1.000984e+02
5.752141e-09
1.000984e+02
1.022102e+02
-1.022102e+02
-1.022102e+02
1.022102e+02
-1.445471e+02
1.445471e+02
-1.445471e+02
1.911939e-09
1.445471e+02
1.099344e-09
-4.260104e+01
-6.024695e+01
-5.585657e+01
-2.313655e+01
-2.180480e-09
2.313655e+01
5.585657e+01
6.024695e+01
4.260104e+01
-4.657937e+01
4.657937e+01
-3.293660e+01
-6.247662e-09
3.293660e+01
-3.293660e+01
2.322565e-09
-4.657937e+01
3.293660e+01
4.657937e+01
-1.725370e+02
7.219146e-09
1.725370e+02
1.220020e+02
-1.725370e+02
-6.638712e-09
1.725370e+02
1.220020e+02
-1.220020e+02
-1.220020e+02
2.093297e+00
1.480177e+00
-2.874872e-09
-1.480177e+00
-2.093297e+00
1.336878e+01
2.450997e+01
2.450997e+01
-3.466233e+01
3.227508e+01
3.466233e+01
-6.499436e-09
1.336878e+01
-3.466233e+01
3.227508e+01
3.466233e+01
5.447737e-09
-3.227508e+01
-2.450997e+01
-1.336878e+01
-2.450997e+01
-1.336878e+01
-3.227508e+01
-5.527722e+01
-5.527722e+01
-1.334510e+02
-1.018086e+02
5.527722e+01
1.334510e+02
-1.334510e+02
-1.018086e+02
5.527722e+01
-1.439791e+02
5.762800e-09
1.018086e+02
1.439791e+02
-1.439791e+02
-4.126464e-09
1.018086e+02
1.439791e+02
1.334510e+02
-1.861850e+01
5.241720e-09
1.861850e+01
-1.861850e+01
1.861850e+01
-2.633054e+01
-3.067200e-09
2.633054e+01
-2.633054e+01
2.633054e+01
-3.056155e-09
-5.146065e+01
7.277636e+01
6.727381e+01
5.146065e+01
2.786572e+01
-2.786572e+01
-6.727381e+01
-7.277636e+01
-1.276199e+02
-1.276199e+02
-1.804818e+02
5.132940e-09
1.276199e+02
1.804818e+02
-1.804818e+02
-9.649085e-09
1.276199e+02
1.804818e+02
-3.129226e+01
3.129226e+01
4.797043e-09
3.129226e+01
4.425394e+01
-4.425394e+01
-7.071970e-09
-3.129226e+01
4.425394e+01
-4.425394e+01
-6.700853e+01
3.862903e-09
-6.700853e+01
-9.285677e-10
-9.476439e+01
6.700853e+01
9.476439e+01
-9.476439e+01
6.700853e+01
9.476439e+01
7.423106e+01
7.423106e+01
1.049786e+02
-5.946469e-09
-1.049786e+02
-7.423106e+01
1.049786e+02
5.046982e-10
-7.423106e+01
-1.049786e+02
-2.993086e-09
-1.041413e+02
1.472781e+02
1.041413e+02
-1.472781e+02
-9.075841e+00
-9.075841e+00
-2.344491e+01
2.191103e+01
2.344491e+01
-2.191103e+01
1.799549e-09
9.075841e+00
-2.344491e+01
2.191103e+01
2.344491e+01
9.075841e+00
1.657805e+01
1.657805e+01
-2.191103e+01
2.117795e-09
-1.657805e+01
-1.657805e+01
5.040649e+01
-6.391142e-09
1.216920e+02
-1.216920e+02
3.664732e-09
5.040649e+01
-9.307318e+01
-1.216920e+02
1.216920e+02
9.307318e+01
1.316254e+02
9.307318e+01
-9.307318e+01
-1.316254e+02
-5.040649e+01
-5.040649e+01
1.316254e+02
-1.316254e+02
1.022102e+02
1.022102e+02
-1.445471e+02
1.445471e+02
-1.022102e+02
-1.445471e+02
4.925336e-09
1.445471e+02
-6.766790e-09
-1.022102e+02
2.213031e+02
2.045640e+02
1.564849e+02
8.473320e+01
-2.567920e-09
-8.473320e+01
-1.564849e+02
-2.045640e+02
-2.213031e+02
1.059934e+02
-1.059934e+02
1.498973e+02
-1.498973e+02
-4.615322e-09
1.498973e+02
5.251929e-09
-1.059934e+02
-1.498973e+02
1.059934e+02
-4.405612e+01
6.230475e+01
4.405612e+01
2.003570e-11
-6.230475e+01
6.230475e+01
4.405612e+01
4.368549e-09
-6.230475e+01
-4.405612e+01
-1.548141e+02
2.189401e+02
-2.189401e+02
2.189401e+02
-2.189401e+02
-1.548141e+02
1.548141e+02
1.548141e+02
2.325163e-09
-5.156895e-09
-6.919105e+01
-1.804481e+02
6.919105e+01
1.804481e+02
-3.007362e-09
-1.804481e+02
1.804481e+02
-6.919105e+01
6.919105e+01
1.670420e+02
-1.670420e+02
-1.275961e+02
1.275961e+02
1.670420e+02
-4.223773e-09
-1.670420e+02
1.275961e+02
-1.275961e+02
-1.861850e+01
4.135705e-09
1.861850e+01
1.861850e+01
-1.861850e+01
-2.633054e+01
2.633054e+01
-2.633054e+01
-5.163454e-10
2.633054e+01
1.875741e+02
-3.511258e-09
2.652698e+02
-1.875741e+02
-2.652698e+02
2.652698e+02
-5.435358e-10
-1.875741e+02
-2.652698e+02
1.875741e+02
-1.221750e+02
1.221750e+02
-1.221750e+02
1.221750e+02
-1.727815e+02
1.727815e+02
-1.727815e+02
-4.028276e-09
1.727815e+02
-2.662592e-09
1.100716e+02
1.100716e+02
5.965469e+01
5.965469e+01
1.556648e+02
1.440192e+02
-9.255016e-10
-5.965469e+01
-1.440192e+02
-1.556648e+02
1.556648e+02
1.440192e+02
4.441961e-09
-5.965469e+01
-1.440192e+02
-1.556648e+02
-1.100716e+02
-1.100716e+02
-1.054707e-09
-1.350927e+02
-1.350927e+02
1.030996e+02
-3.241455e-09
-1.458048e+02
5.595721e+01
1.030996e+02
1.350927e+02
1.458048e+02
-5.595721e+01
5.595721e+01
-1.458048e+02
1.458048e+02
-5.595721e+01
-1.030996e+02
-1.030996e+02
1.350927e+02
2.758953e+02
2.981550e+02
1.142796e+02
-3.448514e-09
-1.142796e+02
-2.108274e+02
-2.758953e+02
-2.981550e+02
2.981550e+02
2.108274e+02
-2.108274e+02
-2.758953e+02
-2.981550e+02
1.142796e+02
1.025160e-09
2.108274e+02
2.758953e+02
-1.142796e+02
-1.000984e+02
9.121003e-10
1.000984e+02
-1.000984e+02
-2.312809e-09
1.000984e+02
-7.078023e+01
7.078023e+01
-7.078023e+01
7.078023e+01
2.468696e+02
1.745632e+02
-1.367964e-09
-2.468696e+02
2.468696e+02
1.745632e+02
3.533987e-09
-2.468696e+02
-1.745632e+02
-1.745632e+02
1.059934e+02
1.059934e+02
-1.059934e+02
1.498973e+02
2.296530e-09
-1.059934e+02
-1.498973e+02
1.498973e+02
-1.498973e+02
2.568470e-09
-2.567876e-10
-2.089955e-09
-2.653155e-09
3.478325e+02
-3.478325e+02
1.972143e-09
3.193363e+02
-2.258048e+02
-3.193363e+02
2.258048e+02
-2.459547e+02
2.459547e+02
3.478325e+02
2.459547e+02
-3.478325e+02
-2.459547e+02
2.258048e+02
3.193363e+02
-2.258048e+02
-3.193363e+02
2.450997e+01
2.450997e+01
2.733500e-09
-3.227508e+01
-3.227508e+01
-3.466233e+01
3.227508e+01
3.466233e+01
-2.450997e+01
-3.466233e+01
3.227508e+01
3.466233e+01
1.336878e+01
-2.450997e+01
-1.336878e+01
-1.336878e+01
-1.361389e-09
1.336878e+01
3.129226e+01
3.990791e-09
4.425394e+01
-4.425394e+01
4.425394e+01
-4.425394e+01
3.129226e+01
-3.129226e+01
-5.959838e-10
-3.129226e+01
2.303909e+02
2.303909e+02
3.015824e+02
-8.974520e-10
2.720924e+02
3.015824e+02
3.258220e+02
1.249195e+02
-1.161674e-09
-1.249195e+02
-2.303909e+02
-3.015824e+02
-3.258220e+02
-3.560526e+02
3.560526e+02
3.847967e+02
-1.474818e+02
-3.847967e+02
-2.720924e+02
3.258220e+02
1.249195e+02
1.963233e-09
-1.249195e+02
-2.303909e+02
-3.015824e+02
-3.258220e+02
1.474818e+02
4.687566e-09
-1.805175e+02
-9.874055e-09
1.805175e+02
-1.805175e+02
1.805175e+02
1.276451e+02
-1.276451e+02
-1.276451e+02
1.276451e+02
5.040649e+01
5.040649e+01
3.765110e-09
-5.040649e+01
-5.040649e+01
-9.307318e+01
-2.305810e-10
-1.216920e+02
1.316254e+02
9.307318e+01
-9.307318e+01
-1.316254e+02
1.316254e+02
-1.316254e+02
-1.216920e+02
1.216920e+02
1.216920e+02
9.307318e+01
-1.044520e+02
-1.477175e+02
1.477175e+02
-1.044520e+02
-6.595158e-09
1.044520e+02
-1.477175e+02
3.141574e-09
1.044520e+02
1.477175e+02
2.669393e+02
2.669393e+02
8.787340e-10
3.680181e-10
3.193363e+02
-2.258048e+02
-3.193363e+02
-2.669393e+02
3.775091e+02
-8.962516e-10
-3.775091e+02
4.084732e+02
-9.862553e-10
-2.888342e+02
-4.084732e+02
2.888342e+02
2.888342e+02
4.084732e+02
-4.084732e+02
-2.888342e+02
3.775091e+02
-2.669393e+02
-3.775091e+02
3.193363e+02
-2.258048e+02
-3.193363e+02
1.339578e-09
2.258048e+02
-8.958965e-12
2.258048e+02
-1.548141e+02
2.989565e-09
2.189401e+02
-2.189401e+02
1.548141e+02
-8.968287e-11
1.548141e+02
2.189401e+02
-2.189401e+02
-1.548141e+02
-4.657937e+01
3.293660e+01
4.657937e+01
-4.657937e+01
4.657937e+01
-2.627505e-10
3.293660e+01
-3.293660e+01
-3.293660e+01
9.730214e-11
2.482181e-10
1.142796e+02
1.676352e-09
3.848795e+02
-3.848795e+02
-2.941158e+02
3.848795e+02
2.758953e+02
2.981550e+02
2.108274e+02
-2.108274e+02
-2.758953e+02
-2.981550e+02
-1.142796e+02
4.159425e+02
-4.159425e+02
2.941158e+02
1.594223e+02
-5.760561e-10
4.159425e+02
2.941158e+02
-1.594223e+02
-2.941158e+02
-3.848795e+02
-4.159425e+02
2.108274e+02
2.981550e+02
1.142796e+02
-9.899551e-11
-1.142796e+02
-2.108274e+02
-2.758953e+02
-2.981550e+02
2.758953e+02
-1.594223e+02
1.594223e+02
7.423106e+01
7.423106e+01
1.049786e+02
3.742195e-09
-7.423106e+01
-1.049786e+02
1.049786e+02
-2.292658e-09
-1.049786e+02
-7.423106e+01
1.875741e+02
-2.459547e+02
3.114954e+02
2.459547e+02
-1.763028e-09
2.652698e+02
2.493618e-09
-1.875741e+02
-2.652698e+02
9.664482e-10
3.478325e+02
-3.478325e+02
2.459547e+02
-2.888342e+02
4.405211e+02
3.114954e+02
-4.405211e+02
-2.204888e-10
-3.114954e+02
4.405211e+02
-1.229632e-12
-3.114954e+02
-4.405211e+02
4.084732e+02
-4.084732e+02
1.169836e-10
-2.888342e+02
-2.459547e+02
3.478325e+02
-3.478325e+02
-5.889764e-10
2.652698e+02
-1.875741e+02
-2.652698e+02
1.875741e+02
4.084732e+02
-1.230890e-11
-4.084732e+02
2.888342e+02
2.888342e+02
-3.560526e+02
3.560526e+02
-1.474818e+02
1.474818e+02
2.720924e+02
-2.720924e+02
-1.805785e+02
-1.671056e+02
-6.921742e+01
-9.699560e-09
6.921742e+01
1.276883e+02
1.671056e+02
1.805785e+02
-1.276883e+02
1.225745e+02
-1.733464e+02
-9.256910e-09
1.733464e+02
-1.225745e+02
-1.059820e+02
1.059820e+02
-1.387564e+02
5.747481e+01
1.387564e+02
-1.498812e+02
-5.747481e+01
-7.065669e-09
1.498812e+02
-1.121914e+02
-7.933128e+01
-4.460201e-09
7.933128e+01
1.121914e+02
-4.260104e+01
-6.024695e+01
-5.585657e+01
-2.313655e+01
-1.678458e-09
2.313655e+01
5.585657e+01
6.024695e+01
4.260104e+01
2.093297e+00
1.480177e+00
8.875953e-10
-1.480177e+00
-2.093297e+00
2.124695e-09
-5.146065e+01
7.277636e+01
6.727381e+01
5.146065e+01
2.786572e+01
-2.786572e+01
-6.727381e+01
-7.277636e+01
2.844662e-09
-1.041413e+02
1.472781e+02
1.041413e+02
-1.472781e+02
2.213031e+02
2.045640e+02
1.564849e+02
8.473320e+01
2.443466e-09
-8.473320e+01
-1.564849e+02
-2.045640e+02
-2.213031e+02
4.482247e+02
-4.482247e+02
1.717931e+02
-1.717931e+02
6.138789e-11
3.169427e+02
-3.169427e+02
4.147453e+02
-4.147453e+02
3.847967e+02
-2.720924e+02
-3.847967e+02
2.720924e+02
-5.474947e-10
2.213031e+02
2.045640e+02
1.564849e+02
8.473320e+01
-3.300486e-09
-8.473320e+01
-1.564849e+02
-2.045640e+02
-2.213031e+02
1.472781e+02
1.041413e+02
-1.472781e+02
-1.041413e+02
-3.807353e-09
7.277636e+01
6.727381e+01
5.146065e+01
2.786572e+01
-2.786572e+01
-6.727381e+01
-7.277636e+01
-3.082521e-09
-5.146065e+01
2.093297e+00
1.480177e+00
-1.614149e-09
-1.480177e+00
-2.093297e+00
4.260104e+01
-6.024695e+01
-5.585657e+01
-2.313655e+01
1.281196e-09
2.313655e+01
5.585657e+01
6.024695e+01
-4.260104e+01
-1.121914e+02
-7.933128e+01
4.424466e-09
7.933128e+01
1.121914e+02
-1.498812e+02
-5.747481e+01
7.391211e-09
1.498812e+02
-1.387564e+02
5.747481e+01
1.387564e+02
-1.059820e+02
1.059820e+02
-1.225745e+02
-1.733464e+02
9.821141e-09
1.733464e+02
1.225745e+02
-1.276883e+02
-1.805785e+02
-1.671056e+02
-6.921742e+01
1.036266e-08
6.921742e+01
1.276883e+02
1.671056e+02
1.805785e+02
3.560526e+02
3.847967e+02
-3.847967e+02
2.976783e-10
-3.560526e+02
1.474818e+02
-1.474818e+02
2.888342e+02
1.015163e-10
4.084732e+02
2.888342e+02
-1.392838e-10
-4.084732e+02
4.084732e+02
-1.541646e-10
-4.084732e+02
2.977291e-10
1.875741e+02
2.652698e+02
1.135878e-09
-1.875741e+02
-2.652698e+02
3.478325e+02
-3.478325e+02
4.405211e+02
3.114954e+02
-3.114954e+02
-4.405211e+02
4.405211e+02
-3.114954e+02
-4.405211e+02
3.114954e+02
-2.888342e+02
2.459547e+02
-2.459547e+02
3.478325e+02
-3.478325e+02
2.652698e+02
-3.310477e-09
-1.875741e+02
-2.652698e+02
1.875741e+02
-2.459547e+02
2.459547e+02
-2.888342e+02
-1.431932e-09
2.725068e-10
-7.423106e+01
1.049786e+02
1.483679e-09
-1.049786e+02
1.049786e+02
-4.753211e-09
-7.423106e+01
-1.049786e+02
7.423106e+01
7.423106e+01
2.758953e+02
-1.594223e+02
-2.941158e+02
4.905485e-10
2.758953e+02
2.981550e+02
2.108274e+02
1.142796e+02
-2.770705e-10
-1.142796e+02
-2.108274e+02
-2.758953e+02
-2.981550e+02
2.941158e+02
4.159425e+02
1.594223e+02
-1.862654e-10
-2.941158e+02
-3.848795e+02
-4.159425e+02
4.159425e+02
2.941158e+02
-3.848795e+02
-4.159425e+02
3.848795e+02
2.108274e+02
-1.142796e+02
2.981550e+02
1.142796e+02
-2.403926e-09
-2.108274e+02
-2.758953e+02
-2.981550e+02
3.848795e+02
1.594223e+02
-1.594223e+02
-3.293660e+01
-6.363297e-10
-3.293660e+01
-1.328301e-12
3.293660e+01
-4.657937e+01
4.657937e+01
-4.657937e+01
3.293660e+01
4.657937e+01
-1.548141e+02
2.189401e+02
-2.189401e+02
1.548141e+02
-4.978602e-10
1.548141e+02
2.189401e+02
-2.189401e+02
-4.020727e-09
-1.548141e+02
3.775091e+02
-3.775091e+02
2.258048e+02
-2.888342e+02
1.011477e-09
-2.888342e+02
2.258048e+02
-1.517063e-09
3.193363e+02
-2.258048e+02
-3.193363e+02
2.669393e+02
-8.763628e-10
-2.669393e+02
2.888342e+02
4.084732e+02
-4.084732e+02
2.888342e+02
3.775091e+02
2.669393e+02
-2.669393e+02
-3.775091e+02
6.354455e-10
3.193363e+02
-2.258048e+02
-3.193363e+02
-1.024491e-09
4.084732e+02
1.359373e-10
-4.084732e+02
-1.477175e+02
-2.489256e-09
1.044520e+02
1.477175e+02
6.640259e-09
1.044520e+02
-1.044520e+02
-1.477175e+02
1.477175e+02
-1.044520e+02
1.216920e+02
9.307318e+01
1.216920e+02
-1.216920e+02
1.316254e+02
-1.316254e+02
1.316254e+02
9.307318e+01
-9.307318e+01
-1.316254e+02
-1.216920e+02
-3.631369e-10
-9.307318e+01
-5.040649e+01
-5.040649e+01
-4.861006e-09
5.040649e+01
5.040649e+01
-1.276451e+02
1.276451e+02
-1.276451e+02
1.276451e+02
-1.805175e+02
1.805175e+02
-1.805175e+02
1.007314e-08
1.805175e+02
-3.658803e-09
3.847967e+02
-3.560526e+02
-3.847967e+02
3.258220e+02
1.249195e+02
-2.017738e-09
-1.249195e+02
-2.303909e+02
-3.015824e+02
-3.258220e+02
2.720924e+02
1.474818e+02
-1.474818e+02
3.258220e+02
1.249195e+02
6.766730e-10
-1.249195e+02
-2.303909e+02
-3.015824e+02
-3.258220e+02
3.015824e+02
3.560526e+02
9.792900e-10
-2.720924e+02
3.015824e+02
2.303909e+02
2.303909e+02
-3.129226e+01
1.846956e-10
-3.129226e+01
3.129226e+01
4.425394e+01
-4.425394e+01
4.425394e+01
-4.425394e+01
-4.866111e-09
3.129226e+01
1.293228e-09
1.336878e+01
-1.336878e+01
-2.450997e+01
-1.336878e+01
1.336878e+01
-3.466233e+01
3.227508e+01
3.466233e+01
-2.450997e+01
-3.466233e+01
3.227508e+01
3.466233e+01
-3.227508e+01
-3.227508e+01
-3.244647e-09
2.450997e+01
2.450997e+01
2.459547e+02
2.459547e+02
3.193363e+02
-2.258048e+02
-3.193363e+02
2.258048e+02
2.258048e+02
3.193363e+02
-2.258048e+02
-3.193363e+02
-1.974666e-09
3.478325e+02
-2.459547e+02
-3.478325e+02
3.478325e+02
-3.478325e+02
-2.459547e+02
2.317830e-09
3.545861e-10
2.068082e-09
-2.974642e-09
1.498973e+02
-1.498973e+02
1.498973e+02
-3.412063e-09
-1.059934e+02
-1.498973e+02
-1.059934e+02
1.059934e+02
1.059934e+02
-1.745632e+02
-1.745632e+02
2.468696e+02
1.745632e+02
-3.781021e-09
-2.468696e+02
2.468696e+02
1.745632e+02
5.403131e-10
-2.468696e+02
-7.078023e+01
7.078023e+01
-7.078023e+01
7.078023e+01
-1.000984e+02
2.735267e-09
1.000984e+02
-1.000984e+02
-1.018429e-09
1.000984e+02
2.108274e+02
-1.142796e+02
2.758953e+02
2.758953e+02
2.108274e+02
-1.142796e+02
1.142796e+02
-9.951459e-10
2.981550e+02
-2.108274e+02
-2.758953e+02
-2.981550e+02
2.981550e+02
1.142796e+02
3.215089e-09
-2.108274e+02
-2.758953e+02
-2.981550e+02
1.350927e+02
-1.030996e+02
-1.030996e+02
-5.595721e+01
-1.458048e+02
1.458048e+02
-5.595721e+01
5.595721e+01
-1.458048e+02
5.595721e+01
1.030996e+02
1.350927e+02
1.458048e+02
4.098118e-09
1.030996e+02
-1.350927e+02
-1.350927e+02
1.202143e-09
-1.100716e+02
-1.100716e+02
1.556648e+02
1.440192e+02
-4.785974e-09
-5.965469e+01
-1.440192e+02
-1.556648e+02
1.556648e+02
1.440192e+02
-2.637811e-11
-5.965469e+01
-1.440192e+02
-1.556648e+02
5.965469e+01
5.965469e+01
1.100716e+02
1.100716e+02
2.860984e-09
-1.727815e+02
5.168048e-09
1.727815e+02
-1.727815e+02
1.727815e+02
1.221750e+02
-1.221750e+02
1.221750e+02
-1.221750e+02
1.875741e+02
6.146933e-10
2.652698e+02
-1.875741e+02
-2.652698e+02
2.652698e+02
3.417899e-09
-1.875741e+02
-2.652698e+02
1.875741e+02
-2.633054e+01
4.140308e-10
2.633054e+01
-2.633054e+01
2.633054e+01
-1.861850e+01
1.861850e+01
-4.553860e-09
1.861850e+01
-1.861850e+01
-1.275961e+02
1.275961e+02
-1.670420e+02
5.472149e-09
-1.670420e+02
-1.275961e+02
1.275961e+02
1.670420e+02
-6.919105e+01
6.919105e+01
1.670420e+02
-1.804481e+02
1.804481e+02
3.229805e-09
-1.804481e+02
6.919105e+01
1.804481e+02
-6.919105e+01
4.782584e-09
-2.344494e-09
1.548141e+02
1.548141e+02
-1.548141e+02
2.189401e+02
-2.189401e+02
2.189401e+02
-2.189401e+02
-1.548141e+02
-4.405612e+01
6.230475e+01
4.405612e+01
-4.818926e-09
-6.230475e+01
6.230475e+01
4.405612e+01
-8.533250e-10
-6.230475e+01
-4.405612e+01
1.059934e+02
1.498973e+02
-5.566160e-09
-1.059934e+02
-1.498973e+02
3.909062e-09
1.498973e+02
-1.498973e+02
-1.059934e+02
1.059934e+02
2.213031e+02
2.045640e+02
1.564849e+02
8.473320e+01
2.538350e-09
-8.473320e+01
-1.564849e+02
-2.045640e+02
-2.213031e+02
-1.022102e+02
7.293630e-09
-1.445471e+02
-4.234578e-09
1.445471e+02
-1.022102e+02
-1.445471e+02
1.445471e+02
1.022102e+02
1.022102e+02
1.316254e+02
-1.316254e+02
-5.040649e+01
-5.040649e+01
1.316254e+02
9.307318e+01
-9.307318e+01
-1.316254e+02
1.216920e+02
9.307318e+01
-1.216920e+02
-9.307318e+01
5.040649e+01
-3.764225e-09
-1.216920e+02
1.216920e+02
5.834836e-09
5.040649e+01
-1.657805e+01
-1.657805e+01
-2.191103e+01
-2.575979e-09
1.657805e+01
1.657805e+01
9.075841e+00
-2.344491e+01
2.191103e+01
2.344491e+01
9.075841e+00
-2.191103e+01
-2.220324e-09
-2.344491e+01
2.191103e+01
2.344491e+01
-9.075841e+00
-9.075841e+00
1.472781e+02
1.041413e+02
-1.472781e+02
-1.041413e+02
2.957793e-09
1.049786e+02
-4.528961e-10
-7.423106e+01
-1.049786e+02
-7.423106e+01
1.049786e+02
5.648472e-09
-1.049786e+02
7.423106e+01
7.423106e+01
-9.476439e+01
6.700853e+01
9.476439e+01
-9.476439e+01
6.700853e+01
9.476439e+01
-6.700853e+01
5.563139e-10
-6.700853e+01
-3.652100e-09
4.425394e+01
-4.425394e+01
-3.129226e+01
6.436702e-09
4.425394e+01
-4.425394e+01
3.129226e+01
-5.028449e-09
3.129226e+01
-3.129226e+01
-1.804818e+02
1.050689e-08
1.276199e+02
1.804818e+02
-1.804818e+02
-4.107381e-09
1.276199e+02
1.804818e+02
-1.276199e+02
-1.276199e+02
7.277636e+01
6.727381e+01
5.146065e+01
2.786572e+01
-2.786572e+01
-6.727381e+01
-7.277636e+01
3.004760e-09
-5.146065e+01
-2.633054e+01
2.633054e+01
-2.633054e+01
2.554972e-09
2.633054e+01
1.861850e+01
-1.861850e+01
-5.809543e-09
1.861850e+01
-1.861850e+01
1.334510e+02
-1.439791e+02
3.763261e-09
1.018086e+02
1.439791e+02
-1.439791e+02
-5.036105e-09
1.018086e+02
1.439791e+02
-1.334510e+02
-1.018086e+02
5.527722e+01
1.334510e+02
-1.334510e+02
-1.018086e+02
5.527722e+01
-5.527722e+01
-5.527722e+01
-3.227508e+01
-2.450997e+01
-1.336878e+01
-1.336878e+01
-2.450997e+01
-3.227508e+01
-5.633873e-09
-3.466233e+01
3.227508e+01
3.466233e+01
5.841023e-09
1.336878e+01
-3.466233e+01
3.227508e+01
3.466233e+01
2.450997e+01
2.450997e+01
1.336878e+01
2.093297e+00
1.480177e+00
2.853550e-09
-1.480177e+00
-2.093297e+00
-1.220020e+02
-1.220020e+02
1.220020e+02
-1.725370e+02
6.284833e-09
1.725370e+02