# vtk DataFile Version 3.0
Unstructured Grid Example
ASCII
DATASET UNSTRUCTURED_GRID
POINTS 1641 float
-9.500000e-01	 0	 0
-9.500000e-01	 0	 3.750000e-01
-9.500000e-01	 0	 1.125000e+00
-9.500000e-01	 0	 1.500000e+00
-9.500000e-01	 0	 1.875000e+00
-9.500000e-01	 0	 2.250000e+00
-9.500000e-01	 0	 2.625000e+00
-9.500000e-01	 0	 3
-9.500000e-01	 0	 7.500000e-01
-9.341401e-01	 -1.728649e-01	 1.500000e+00
-9.341401e-01	 -1.728649e-01	 0
-9.341401e-01	 -1.728649e-01	 3.000000e+00
-9.341401e-01	 1.728649e-01	 2.250000e+00
-9.341401e-01	 1.728649e-01	 0
-9.341401e-01	 1.728649e-01	 1.500000e+00
-9.341401e-01	 1.728649e-01	 3.000000e+00
-9.341401e-01	 -1.728649e-01	 7.500000e-01
-9.341401e-01	 -1.728649e-01	 2.250000e+00
-9.341401e-01	 1.728649e-01	 7.500000e-01
-8.832989e-01	 -3.496900e-01	 1.125000e+00
-8.832989e-01	 -3.496900e-01	 1.875000e+00
-8.832989e-01	 -3.496900e-01	 2.625000e+00
-8.832989e-01	 -3.496900e-01	 2.250000e+00
-8.832989e-01	 3.496900e-01	 1.125000e+00
-8.832989e-01	 -3.496900e-01	 0
-8.832989e-01	 -3.496900e-01	 3.000000e+00
-8.832989e-01	 -3.496900e-01	 3.750000e-01
-8.832989e-01	 -3.496900e-01	 7.500000e-01
-8.832989e-01	 3.496900e-01	 3.750000e-01
-8.832989e-01	 3.496900e-01	 7.500000e-01
-8.832989e-01	 3.496900e-01	 2.250000e+00
-8.832989e-01	 3.496900e-01	 2.625000e+00
-8.832989e-01	 3.496900e-01	 0
-8.832989e-01	 3.496900e-01	 1.875000e+00
-8.832989e-01	 3.496900e-01	 3.000000e+00
-8.832989e-01	 -3.496900e-01	 1.500000e+00
-8.832989e-01	 3.496900e-01	 1.500000e+00
-8.787500e-01	 0	 2.250000e+00
-8.787500e-01	 0	 0
-8.787500e-01	 0	 1.500000e+00
-8.787500e-01	 0	 3
-8.787500e-01	 0	 7.500000e-01
-8.149622e-01	 -3.223238e-01	 7.500000e-01
-8.149622e-01	 3.223238e-01	 7.500000e-01
-8.149622e-01	 -3.223238e-01	 2.250000e+00
-8.149622e-01	 3.223238e-01	 2.250000e+00
-8.149622e-01	 -3.223238e-01	 0
-8.149622e-01	 -3.223238e-01	 1.500000e+00
-8.149622e-01	 -3.223238e-01	 3
-8.149622e-01	 3.223238e-01	 1.500000e+00
-8.149622e-01	 3.223238e-01	 0
-8.149622e-01	 3.223238e-01	 3
-8.075000e-01	 0	 7.500000e-01
-8.075000e-01	 0	 2.250000e+00
-8.075000e-01	 0	 3.750000e-01
-8.075000e-01	 0	 1.875000e+00
-8.075000e-01	 0	 2.625000e+00
-8.075000e-01	 0	 0
-8.075000e-01	 0	 1.125000e+00
-8.075000e-01	 0	 1.500000e+00
-8.075000e-01	 0	 3
-7.951457e-01	 -5.198493e-01	 7.500000e-01
-7.951457e-01	 5.198493e-01	 7.500000e-01
-7.951457e-01	 -5.198493e-01	 0
-7.951457e-01	 -5.198493e-01	 1.500000e+00
-7.951457e-01	 -5.198493e-01	 2.250000e+00
-7.951457e-01	 -5.198493e-01	 3
-7.951457e-01	 5.198493e-01	 0
-7.951457e-01	 5.198493e-01	 1.500000e+00
-7.951457e-01	 5.198493e-01	 2.250000e+00
-7.951457e-01	 5.198493e-01	 3
-7.894916e-01	 -1.451644e-01	 7.500000e-01
-7.894916e-01	 1.451644e-01	 7.500000e-01
-7.894916e-01	 1.451644e-01	 0
-7.894916e-01	 1.451644e-01	 3
-7.894916e-01	 -1.451644e-01	 0
-7.894916e-01	 -1.451644e-01	 1.500000e+00
-7.894916e-01	 -1.451644e-01	 2.250000e+00
-7.894916e-01	 -1.451644e-01	 3
-7.894916e-01	 1.451644e-01	 1.500000e+00
-7.894916e-01	 1.451644e-01	 2.250000e+00
-7.430021e-01	 -2.929055e-01	 1.500000e+00
-7.430021e-01	 2.929055e-01	 1.500000e+00
-7.430021e-01	 -2.929055e-01	 2.250000e+00
-7.430021e-01	 -2.929055e-01	 0
-7.430021e-01	 -2.929055e-01	 3.000000e+00
-7.430021e-01	 2.929055e-01	 3.750000e-01
-7.430021e-01	 -2.929055e-01	 3.750000e-01
-7.430021e-01	 -2.929055e-01	 1.125000e+00
-7.430021e-01	 -2.929055e-01	 1.875000e+00
-7.430021e-01	 -2.929055e-01	 2.625000e+00
-7.430021e-01	 2.929055e-01	 1.125000e+00
-7.430021e-01	 2.929055e-01	 0
-7.430021e-01	 2.929055e-01	 1.875000e+00
-7.430021e-01	 2.929055e-01	 2.250000e+00
-7.430021e-01	 2.929055e-01	 2.625000e+00
-7.430021e-01	 2.929055e-01	 3.000000e+00
-7.430021e-01	 2.929055e-01	 7.500000e-01
-7.430021e-01	 -2.929055e-01	 7.500000e-01
-7.362500e-01	 0	 0
-7.362500e-01	 0	 7.500000e-01
-7.362500e-01	 0	 1.500000e+00
-7.362500e-01	 0	 2.250000e+00
-7.362500e-01	 0	 3
-6.717514e-01	 -6.717514e-01	 2.625000e+00
-6.717514e-01	 6.717514e-01	 2.625000e+00
-6.717514e-01	 -6.717514e-01	 0
-6.717514e-01	 -6.717514e-01	 3.750000e-01
-6.717514e-01	 -6.717514e-01	 7.500000e-01
-6.717514e-01	 -6.717514e-01	 1.125000e+00
-6.717514e-01	 -6.717514e-01	 1.875000e+00
-6.717514e-01	 -6.717514e-01	 3.000000e+00
-6.717514e-01	 -6.717514e-01	 2.250000e+00
-6.717514e-01	 6.717514e-01	 1.500000e+00
-6.717514e-01	 6.717514e-01	 0
-6.717514e-01	 6.717514e-01	 3.750000e-01
-6.717514e-01	 6.717514e-01	 7.500000e-01
-6.717514e-01	 6.717514e-01	 1.125000e+00
-6.717514e-01	 6.717514e-01	 1.875000e+00
-6.717514e-01	 6.717514e-01	 3.000000e+00
-6.717514e-01	 -6.717514e-01	 1.500000e+00
-6.717514e-01	 6.717514e-01	 2.250000e+00
-6.682985e-01	 -2.618048e-01	 0
-6.682985e-01	 -2.618048e-01	 1.500000e+00
-6.682985e-01	 -2.618048e-01	 3
-6.682985e-01	 -2.618048e-01	 7.500000e-01
-6.682985e-01	 -2.618048e-01	 2.250000e+00
-6.682985e-01	 2.618048e-01	 7.500000e-01
-6.682985e-01	 2.618048e-01	 2.250000e+00
-6.682985e-01	 2.618048e-01	 0
-6.682985e-01	 2.618048e-01	 1.500000e+00
-6.682985e-01	 2.618048e-01	 3
-6.665713e-01	 -4.348738e-01	 2.250000e+00
-6.665713e-01	 -4.348738e-01	 7.500000e-01
-6.665713e-01	 4.348738e-01	 7.500000e-01
-6.665713e-01	 4.348738e-01	 2.250000e+00
-6.665713e-01	 -4.348738e-01	 0
-6.665713e-01	 -4.348738e-01	 3
-6.665713e-01	 4.348738e-01	 0
-6.665713e-01	 4.348738e-01	 1.500000e+00
-6.665713e-01	 4.348738e-01	 3
-6.665713e-01	 -4.348738e-01	 1.500000e+00
-6.650000e-01	 0	 7.500000e-01
-6.650000e-01	 0	 0
-6.650000e-01	 0	 3.750000e-01
-6.650000e-01	 0	 1.125000e+00
-6.650000e-01	 0	 1.500000e+00
-6.650000e-01	 0	 1.875000e+00
-6.650000e-01	 0	 2.625000e+00
-6.650000e-01	 0	 3
-6.650000e-01	 0	 2.250000e+00
-6.383743e-01	 -1.144482e-01	 0
-6.383743e-01	 -1.144482e-01	 3.000000e+00
-6.383743e-01	 -1.144482e-01	 7.500000e-01
-6.383743e-01	 -1.144482e-01	 1.500000e+00
-6.383743e-01	 -1.144482e-01	 2.250000e+00
-6.383743e-01	 1.144482e-01	 7.500000e-01
-6.383743e-01	 1.144482e-01	 1.500000e+00
-6.383743e-01	 1.144482e-01	 0
-6.383743e-01	 1.144482e-01	 2.250000e+00
-6.383743e-01	 1.144482e-01	 3.000000e+00
-6.189903e-01	 -6.189903e-01	 0
-6.189903e-01	 -6.189903e-01	 1.500000e+00
-6.189903e-01	 -6.189903e-01	 3.000000e+00
-6.189903e-01	 6.189903e-01	 2.250000e+00
-6.189903e-01	 6.189903e-01	 0
-6.189903e-01	 6.189903e-01	 1.500000e+00
-6.189903e-01	 6.189903e-01	 3.000000e+00
-6.189903e-01	 -6.189903e-01	 2.250000e+00
-6.189903e-01	 -6.189903e-01	 7.500000e-01
-6.189903e-01	 6.189903e-01	 7.500000e-01
-5.937500e-01	 0	 0
-5.937500e-01	 0	 7.500000e-01
-5.937500e-01	 0	 1.500000e+00
-5.937500e-01	 0	 2.250000e+00
-5.937500e-01	 0	 3
-5.917666e-01	 2.294176e-01	 1.875000e+00
-5.917666e-01	 2.294176e-01	 2.250000e+00
-5.917666e-01	 -2.294176e-01	 2.250000e+00
-5.917666e-01	 -2.294176e-01	 0
-5.917666e-01	 -2.294176e-01	 2.625000e+00
-5.917666e-01	 -2.294176e-01	 3
-5.917666e-01	 -2.294176e-01	 1.500000e+00
-5.917666e-01	 -2.294176e-01	 1.875000e+00
-5.917666e-01	 2.294176e-01	 0
-5.917666e-01	 2.294176e-01	 2.625000e+00
-5.917666e-01	 2.294176e-01	 3
-5.917666e-01	 2.294176e-01	 1.500000e+00
-5.917666e-01	 -2.294176e-01	 3.750000e-01
-5.917666e-01	 -2.294176e-01	 7.500000e-01
-5.917666e-01	 -2.294176e-01	 1.125000e+00
-5.917666e-01	 2.294176e-01	 7.500000e-01
-5.917666e-01	 2.294176e-01	 1.125000e+00
-5.917666e-01	 2.294176e-01	 3.750000e-01
-5.620800e-01	 5.620800e-01	 1.125000e+00
-5.620800e-01	 -5.620800e-01	 1.125000e+00
-5.620800e-01	 -5.620800e-01	 3.750000e-01
-5.620800e-01	 -5.620800e-01	 7.500000e-01
-5.620800e-01	 -5.620800e-01	 1.875000e+00
-5.620800e-01	 -5.620800e-01	 2.625000e+00
-5.620800e-01	 5.620800e-01	 3.750000e-01
-5.620800e-01	 5.620800e-01	 7.500000e-01
-5.620800e-01	 5.620800e-01	 1.875000e+00
-5.620800e-01	 -5.620800e-01	 0
-5.620800e-01	 -5.620800e-01	 1.500000e+00
-5.620800e-01	 -5.620800e-01	 2.250000e+00
-5.620800e-01	 -5.620800e-01	 3
-5.620800e-01	 5.620800e-01	 0
-5.620800e-01	 5.620800e-01	 1.500000e+00
-5.620800e-01	 5.620800e-01	 2.250000e+00
-5.620800e-01	 5.620800e-01	 3
-5.620800e-01	 5.620800e-01	 2.625000e+00
-5.250231e-01	 -3.396892e-01	 7.500000e-01
-5.250231e-01	 3.396892e-01	 1.500000e+00
-5.250231e-01	 3.396892e-01	 2.250000e+00
-5.250231e-01	 3.396892e-01	 7.500000e-01
-5.250231e-01	 -3.396892e-01	 2.250000e+00
-5.250231e-01	 -3.396892e-01	 0
-5.250231e-01	 -3.396892e-01	 1.500000e+00
-5.250231e-01	 -3.396892e-01	 3.000000e+00
-5.250231e-01	 3.396892e-01	 0
-5.250231e-01	 3.396892e-01	 3.000000e+00
-5.225000e-01	 0	 1.500000e+00
-5.225000e-01	 0	 2.250000e+00
-5.225000e-01	 0	 0
-5.225000e-01	 0	 3.750000e-01
-5.225000e-01	 0	 7.500000e-01
-5.225000e-01	 0	 1.125000e+00
-5.225000e-01	 0	 1.875000e+00
-5.225000e-01	 0	 2.625000e+00
-5.225000e-01	 0	 3
-5.198493e-01	 7.951457e-01	 7.500000e-01
-5.198493e-01	 -7.951457e-01	 7.500000e-01
-5.198493e-01	 -7.951457e-01	 0
-5.198493e-01	 -7.951457e-01	 1.500000e+00
-5.198493e-01	 -7.951457e-01	 2.250000e+00
-5.198493e-01	 -7.951457e-01	 3
-5.198493e-01	 7.951457e-01	 0
-5.198493e-01	 7.951457e-01	 1.500000e+00
-5.198493e-01	 7.951457e-01	 2.250000e+00
-5.198493e-01	 7.951457e-01	 3
-5.143216e-01	 -1.961513e-01	 2.250000e+00
-5.143216e-01	 1.961513e-01	 7.500000e-01
-5.143216e-01	 1.961513e-01	 1.500000e+00
-5.143216e-01	 -1.961513e-01	 7.500000e-01
-5.143216e-01	 -1.961513e-01	 0
-5.143216e-01	 -1.961513e-01	 3.000000e+00
-5.143216e-01	 -1.961513e-01	 1.500000e+00
-5.143216e-01	 1.961513e-01	 2.250000e+00
-5.143216e-01	 1.961513e-01	 0
-5.143216e-01	 1.961513e-01	 3.000000e+00
-5.020120e-01	 -5.020120e-01	 7.500000e-01
-5.020120e-01	 -5.020120e-01	 1.500000e+00
-5.020120e-01	 5.020120e-01	 7.500000e-01
-5.020120e-01	 5.020120e-01	 1.500000e+00
-5.020120e-01	 -5.020120e-01	 0
-5.020120e-01	 -5.020120e-01	 2.250000e+00
-5.020120e-01	 -5.020120e-01	 3.000000e+00
-5.020120e-01	 5.020120e-01	 0
-5.020120e-01	 5.020120e-01	 2.250000e+00
-5.020120e-01	 5.020120e-01	 3.000000e+00
-4.847636e-01	 8.158725e-02	 7.500000e-01
-4.847636e-01	 -8.158725e-02	 7.500000e-01
[...]
POINT_DATA 1641
SCALARS pres_adim float 1
LOOKUP_TABLE default
-7.755538e-10
-2.792151e-09
-1.080401e-08
-1.174571e-08
-1.092673e-08
-7.487168e-09
-2.742203e-09
-5.949643e-10
-7.361671e-09
1.456203e-09
6.130410e-09
6.283011e-09
-1.614257e-08
-7.032151e-09
-2.189740e-08
-6.991577e-09
3.471106e-09
3.389332e-09
-1.609743e-08
1.467693e-08
1.475931e-08
1.195611e-08
1.366126e-08
-2.391257e-08
1.122117e-08
1.114783e-08
1.197380e-08
1.358082e-08
-1.418833e-08
-1.987886e-08
-1.978141e-08
-1.423612e-08
-1.159551e-08
-2.380158e-08
-1.174241e-08
1.493385e-08
-2.481883e-08
-7.283397e-09
-6.748815e-10
-1.149004e-08
-4.958583e-10
-7.158216e-09
1.312159e-08
-1.925422e-08
1.319875e-08
-1.915807e-08
1.082301e-08
1.443564e-08
1.075091e-08
-2.412831e-08
-1.110799e-08
-1.125194e-08
-6.481027e-09
-6.590716e-09
-2.304916e-09
-9.740494e-09
-2.261592e-09
-4.602190e-10
-9.634133e-09
-1.049699e-08
-3.038523e-10
1.899597e-08
-1.651089e-08
1.219325e-08
2.339536e-08
1.916257e-08
1.197187e-08
-1.160619e-08
-1.930335e-08
-1.637618e-08
-1.177578e-08
2.912908e-09
-1.394120e-08
-5.744171e-09
-5.705741e-09
5.375352e-09
1.031874e-09
2.837903e-09
5.508544e-09
-1.919261e-08
-1.398179e-08
1.268486e-08
-2.150382e-08
1.161945e-08
9.514480e-09
9.464953e-09
-1.195483e-08
1.016661e-08
1.249364e-08
1.255060e-08
1.015539e-08
-2.068056e-08
-9.623996e-09
-2.059597e-08
-1.698302e-08
-1.199118e-08
-9.738851e-09
-1.705986e-08
1.156523e-08
-1.137778e-10
-5.539860e-09
-9.179928e-09
-5.635661e-09
1.895836e-11
1.103930e-08
-6.808566e-09
8.427545e-09
1.104290e-08
1.690727e-08
2.117578e-08
2.119072e-08
8.385211e-09
1.693246e-08
-5.472258e-09
-7.118179e-09
-6.842260e-09
-6.208564e-09
-5.647201e-09
-5.704048e-09
-7.057467e-09
2.218473e-08
-6.237829e-09
7.601377e-09
1.018778e-08
7.572570e-09
9.312213e-09
9.341466e-09
-1.388241e-08
-1.382757e-08
-7.400595e-09
-1.777944e-08
-7.484776e-09
1.630416e-08
1.617895e-08
-1.403495e-08
-1.392450e-08
1.010844e-08
9.933843e-09
-9.675327e-09
-1.651263e-08
-9.811749e-09
2.004555e-08
-4.407103e-09
2.110944e-10
-1.227631e-09
-6.826228e-09
-7.518294e-09
-6.898252e-09
-1.199377e-09
3.162103e-10
-4.487264e-09
3.511320e-09
3.596986e-09
1.572711e-09
6.318525e-11
1.513873e-09
-8.693402e-09
-1.253039e-08
-2.751056e-09
-8.729251e-09
-2.717459e-09
8.021745e-09
2.156003e-08
7.980208e-09
-6.003003e-09
-6.875075e-09
-5.244031e-09
-6.815453e-09
1.638226e-08
1.635904e-08
-5.974685e-09
5.088022e-10
-3.256852e-09
-5.813417e-09
-3.319883e-09
5.856996e-10
-1.260084e-08
-1.007940e-08
6.666269e-09
5.383906e-09
5.791535e-09
5.372372e-09
7.240190e-09
7.186876e-09
-4.907304e-09
-6.574021e-09
-4.958165e-09
-1.324477e-08
5.791111e-09
6.658861e-09
7.179001e-09
-1.010948e-08
-1.263259e-08
-6.561266e-09
-4.581297e-09
1.813920e-08
9.107929e-09
1.434376e-08
1.815254e-08
9.100180e-09
-5.707170e-09
-5.114428e-09
-4.617529e-09
6.767100e-09
1.902931e-08
1.436144e-08
6.727764e-09
-5.962447e-09
-4.406261e-09
-5.130786e-09
-5.918819e-09
-5.680923e-09
9.110089e-09
-9.497573e-09
-7.795963e-09
-7.846816e-09
9.155103e-09
5.034977e-09
1.158692e-08
4.957925e-09
-4.929530e-09
-4.993209e-09
-4.238442e-09
-2.294348e-09
6.618132e-10
-2.868233e-10
-2.243633e-09
-3.747644e-09
-3.786518e-09
-2.747374e-10
7.178204e-10
7.005923e-09
7.990431e-09
5.594742e-10
1.256391e-08
7.842059e-09
7.628487e-10
4.924910e-10
1.114625e-08
6.838909e-09
7.348375e-10
4.144055e-09
-6.500871e-09
-8.852727e-09
4.152724e-09
3.316881e-09
3.321176e-09
4.458438e-09
-6.494859e-09
-2.625442e-09
-2.645055e-09
1.141370e-08
1.544020e-08
-3.880657e-09
-3.213023e-09
4.874508e-09
1.142613e-08
4.836589e-09
-4.656071e-09
-3.886584e-09
-4.629540e-09
-3.586497e-09
3.842763e-10
1.618845e-09
-5.929640e-10
1.658824e-09
3.467783e-10
-3.068373e-10
-5.735761e-09
-3.615916e-09
-2.832667e-10
-2.802349e-09
-1.418126e-09
6.725817e-10
-1.383051e-09
7.067622e-10
1.047193e-08
-2.033629e-09
2.821027e-09
4.417838e-09
2.787255e-09
4.429696e-09
1.107018e-08
-2.036183e-09
-3.120983e-09
-2.909136e-09
-3.105157e-09
1.048246e-08
7.960597e-09
-2.458878e-09
-2.925500e-09
-1.875373e-09
-2.458827e-09
7.952083e-09
2.337379e-09
2.309157e-09
-1.882771e-09
-1.882370e-09
-5.304776e-09
-4.946177e-09
2.190454e-09
1.894202e-09
1.888527e-09
2.201662e-09
-1.000159e-09
-3.669598e-09
-3.674916e-09
-1.005413e-09
-4.950427e-09
2.323919e-09
1.740833e-09
1.746869e-09
6.147420e-09
6.553354e-09
4.091379e-10
5.955329e-10
6.667849e-09
2.810526e-11
1.076556e-08
1.786303e-10
1.003753e-08
6.271096e-09
5.839382e-10
1.046770e-10
-7.920864e-10
-1.487873e-09
-1.756646e-09
-1.506755e-09
-8.164773e-10
1.101719e-10
6.084058e-10
2.823951e-09
2.829086e-09
9.838764e-10
9.685407e-10
3.862724e-09
-1.027650e-09
-3.160142e-09
-2.389561e-09
-1.036484e-09
-2.394142e-09
4.734018e-09
1.051785e-09
4.727304e-09
6.925726e-09
1.022872e-09
-1.719672e-09
-1.191580e-09
-7.108296e-10
-1.711543e-09
-1.187183e-09
8.697485e-10
7.119246e-10
7.227719e-10
-7.717903e-11
-7.032307e-11
-1.684777e-09
8.810272e-10
-1.674107e-09
-2.649623e-09
8.476000e-10
-2.892246e-09
-7.353600e-09
-3.031644e-09
-7.179987e-09
-2.598391e-09
8.669494e-09
8.782057e-09
2.254727e-08
2.247665e-08
1.158779e-08
-6.425325e-09
-4.368104e-09
-4.487994e-09
-6.365163e-09
2.371388e-08
1.154218e-08
1.782886e-08
1.788934e-08
3.417332e-09
6.214539e-09
3.374457e-09
4.251682e-09
4.293038e-09
-1.085639e-09
-1.045127e-09
2.025921e-10
6.992230e-09
2.835087e-10
-9.860448e-11
-5.578951e-10
4.875777e-10
-1.146988e-10
5.064244e-10
3.920089e-10
-1.661066e-09
-8.556433e-10
4.079961e-10
-8.408233e-10
-4.299381e-09
-4.417010e-09
1.741129e-08
1.735320e-08
-7.225436e-09
-7.056779e-09
8.341594e-09
2.315936e-08
8.451570e-09
-2.559749e-09
2.362895e-09
-3.503686e-10
-1.045853e-10
3.488935e-09
-2.350072e-11
7.480295e-10
3.772170e-09
3.493239e-09
7.462503e-10
-4.292525e-11
-7.249545e-10
-6.162765e-10
-1.177957e-13
-1.016931e-10
-6.052382e-10
-7.190660e-10
2.368895e-09
-3.481701e-10
-2.405641e-09
-5.834637e-09
9.969402e-09
1.564709e-08
2.094959e-08
-6.653363e-09
-2.778507e-09
-4.091406e-09
-5.793023e-09
-6.526459e-09
1.988703e-08
1.983643e-08
7.378653e-09
7.466692e-09
-2.674861e-09
-3.999580e-09
1.568765e-08
1.000869e-08
2.177099e-10
2.204500e-10
2.059720e-10
1.639587e-10
1.969606e-10
2.285905e-10
2.274635e-10
2.344480e-10
2.453796e-10
-6.436655e-10
-6.505480e-10
-7.026814e-11
2.559180e-10
-1.047816e-09
-1.193968e-09
2.352995e-10
-7.607565e-11
-1.056191e-09
-5.828121e-09
-2.134884e-09
-5.747237e-09
5.876365e-09
1.778576e-08
5.942161e-09
-3.535550e-09
-3.599700e-09
1.315425e-08
1.313088e-08
-4.619212e-10
8.158709e-10
1.539751e-09
-4.670709e-10
-1.079721e-10
1.154458e-10
3.376456e-10
-1.035784e-10
8.211610e-10
1.163457e-10
7.073435e-10
2.125763e-09
2.125953e-09
-1.390513e-09
2.010166e-09
7.075694e-10
-1.404138e-09
9.580908e-11
1.147073e-10
3.508734e-09
-5.793708e-10
-2.214274e-10
4.886745e-10
1.504990e-10
1.685410e-10
-4.527936e-10
-1.736129e-10
2.653185e-10
-1.619198e-10
2.661289e-10
-5.548223e-11
-5.009637e-11
2.535764e-10
-2.581273e-10
2.689899e-10
-2.643759e-10
-2.350400e-10
1.756890e-10
-2.383284e-10
1.847986e-10
1.006017e-08
-2.959385e-09
-1.800389e-09
-4.182149e-09
6.041691e-09
-4.736998e-09
-4.176564e-09
-4.701308e-09
1.006792e-08
4.187299e-09
6.067550e-09
4.231370e-09
-2.034804e-09
-2.922612e-09
-2.001909e-09
1.302474e-08
1.381372e-08
1.301230e-08
6.996533e-09
-1.421945e-09
-3.565163e-09
-3.568625e-09
2.582069e-09
2.606414e-09
-2.251005e-09
-2.262095e-09
9.817866e-09
7.000282e-09
1.547056e-10
2.067744e-10
-2.492647e-10
-2.336132e-10
-9.151492e-11
1.250367e-10
-4.565937e-10
4.239871e-10
5.049984e-10
4.238085e-10
1.585992e-10
-2.354763e-10
-4.479270e-10
5.451032e-11
4.278455e-11
1.269008e-10
-1.990821e-10
1.465824e-10
-9.599694e-11
9.770337e-11
2.903256e-10
3.325027e-10
2.893120e-10
2.060017e-10
1.318497e-10
1.042890e-10
-1.928906e-10
2.894313e-08
-1.301944e-08
-1.679608e-08
-1.303786e-08
1.360095e-08
1.349776e-08
-1.535501e-08
-1.537812e-08
2.287268e-08
2.298845e-08
-1.205777e-09
5.948558e-09
-1.103118e-09
-1.200035e-09
5.955161e-09
4.446851e-09
6.401935e-09
-2.235949e-09
-2.486669e-09
-1.638746e-09
-1.640498e-09
-2.498473e-09
1.393781e-09
1.407195e-09
2.396775e-09
-2.229351e-09
2.384222e-09
4.441796e-09
-1.350286e-08
-1.139060e-08
-1.141411e-08
2.001425e-08
-1.476196e-08
-1.348341e-08
1.163293e-08
2.547661e-08
2.011007e-08
1.155318e-08
-5.572131e-11
1.707565e-10
2.374751e-10
1.541576e-10
-7.128629e-10
-1.711101e-10
-7.060575e-10
-5.487085e-11
-2.948215e-10
7.573420e-11
-2.764689e-10
-4.312489e-11
-6.117863e-11
-5.844044e-11
-2.165060e-11
-5.534415e-11
-2.079879e-11
1.183002e-10
1.365770e-10
-2.383520e-11
1.294221e-10
1.684732e-10
1.407505e-10
1.052318e-10
7.094769e-10
1.108116e-10
1.145336e-09
-1.768419e-10
-8.736243e-11
7.092542e-10
-1.069502e-09
-7.957772e-10
-1.519108e-09
-1.529524e-09
-1.075274e-09
3.629464e-09
2.458642e-09
6.383109e-10
6.432747e-10
2.463307e-09
-7.387154e-09
-8.879952e-09
-7.419407e-09
6.928202e-09
6.893040e-09
1.689320e-08
1.304217e-08
1.298886e-08
-8.895316e-09
-9.774264e-09
1.270726e-10
-5.586541e-10
-5.371237e-10
-1.392229e-10
-1.205673e-10
-9.346866e-11
8.087462e-11
5.868997e-10
-8.406105e-10
-6.562985e-10
-6.517068e-10
-7.802665e-10
-8.353668e-10
-5.546090e-10
-1.452063e-10
-1.221369e-10
-9.095700e-11
-5.554924e-11
-5.200077e-11
8.772194e-11
9.145307e-11
1.112491e-10
8.780263e-11
8.851785e-11
1.046349e-10
1.236145e-09
2.451505e-10
1.711212e-09
1.892188e-09
1.715812e-09
1.235528e-09
5.908811e-10
2.504336e-10
-7.905323e-10
-5.974127e-11
1.154418e-10
-4.184856e-09
5.891555e-09
-3.338613e-09
-4.670706e-09
-4.175476e-09
-3.364875e-09
2.579558e-09
7.998776e-09
2.572459e-09
5.909491e-09
-1.336614e-09
-4.844779e-10
1.796867e-11
6.433697e-10
2.477708e-09
-9.571962e-10
-1.554851e-09
-1.332370e-09
-9.563129e-10
-5.445607e-10
-3.863411e-10
-3.694133e-10
-4.861392e-10
-1.532964e-10
-3.389574e-11
-4.799634e-11
-7.704390e-12
-3.796493e-11
-5.314459e-11
3.162184e-11
3.949038e-11
1.259660e-11
5.286110e-11
4.552142e-11
5.927519e-11
2.969681e-10
1.744313e-10
6.402179e-10
1.439282e-10
1.513338e-10
9.732844e-10
5.077928e-10
1.712618e-09
5.087981e-10
1.712395e-09
-1.720257e-10
-1.222280e-10
-1.472374e-10
-1.515050e-10
1.789780e-10
9.730437e-11
9.508682e-11
-3.177340e-10
-3.124254e-10
-2.429451e-10
-2.456306e-10
-1.467807e-08
-1.672829e-08
-2.443322e-08
-2.514177e-08
-2.430170e-08
-2.112385e-08
-1.678100e-08
-1.482699e-08
-2.123653e-08
-2.054201e-08
-1.420328e-08
-2.450483e-08
-1.435305e-08
-2.065440e-08
-1.868541e-08
-1.859239e-08
-1.461297e-08
-2.146693e-08
-1.465773e-08
-1.275741e-08
-2.157042e-08
-2.222009e-08
-1.288352e-08
-1.069285e-08
-1.596287e-08
-1.911968e-08
-1.588911e-08
-1.079746e-08
-1.269172e-08
-8.284430e-09
-9.689962e-09
-1.481273e-08
-1.533449e-08
-1.476121e-08
-9.718352e-09
-8.365644e-09
-1.263754e-08
-5.863189e-09
-9.366365e-09
-1.148012e-08
-9.334377e-09
-5.917838e-09
-8.058734e-09
-6.431275e-09
-3.805703e-09
-4.687916e-09
-6.450906e-09
-7.693806e-09
-7.676891e-09
-4.700738e-09
-3.842992e-09
-5.074185e-09
-3.962140e-09
-2.157222e-09
-3.969552e-09
-2.173341e-09
-1.086950e-09
-1.504104e-09
-2.271252e-09
-2.812003e-09
-3.001761e-09
-2.810003e-09
-2.268710e-09
-1.501157e-09
-1.088265e-09
1.004180e-12
2.509130e-11
4.103702e-12
-3.561508e-12
1.004405e-11
-1.257959e-11
-1.850542e-11
-1.264389e-11
-1.033938e-12
4.233750e-11
1.955504e-10
5.504172e-11
2.016461e-10
3.163526e-10
9.882302e-10
1.402050e-09
2.167393e-09
2.690896e-09
2.871327e-09
2.694935e-09
2.166846e-09
1.404122e-09
9.886256e-10
2.027462e-09
3.824445e-09
2.023478e-09
3.831324e-09
4.894896e-09
3.652923e-09
4.517866e-09
6.250083e-09
7.469717e-09
7.486493e-09
4.521622e-09
3.635939e-09
7.828948e-09
6.272756e-09
5.689604e-09
9.107198e-09
1.120527e-08
9.146345e-09
5.658240e-09
1.243276e-08
8.111566e-09
9.462300e-09
1.445942e-08
1.501993e-08
1.451675e-08
9.459207e-09
8.049178e-09
1.236475e-08
1.052494e-08
1.557516e-08
1.877139e-08
1.567032e-08
1.043245e-08
1.260068e-08
2.109331e-08
2.184845e-08
1.247775e-08
1.435984e-08
2.121275e-08
1.433874e-08
1.824677e-08
1.836739e-08
2.017585e-08
1.406625e-08
2.411741e-08
1.391323e-08
2.032118e-08
2.075146e-08
1.453877e-08
1.646947e-08
2.390189e-08
2.475014e-08
2.405349e-08
2.089816e-08
1.643772e-08
1.438447e-08
-1.375300e-10
-6.894243e-11
-4.402736e-11
-3.380291e-10
-1.183229e-10
2.848597e-10
2.820749e-10
-2.151184e-11
4.822735e-11
-1.357841e-11
-6.901685e-11
-8.948112e-11
1.777543e-12
1.134321e-10
-8.886319e-11
1.427449e-10
-1.148326e-11
-1.362219e-09
-2.095392e-10
-2.093042e-09
-1.367019e-09
-1.923757e-10
9.929425e-11
1.248192e-10
2.873402e-11
2.199521e-11
1.548704e-11
5.513745e-11
-2.499194e-11
-4.495079e-11
-4.378891e-12
-3.813350e-11
-7.569848e-11
1.252560e-10
1.170112e-10
6.323084e-11
7.420970e-11
5.030691e-10
9.768213e-10
8.206871e-10
5.108617e-10
8.293853e-10
-3.848113e-10
-3.799587e-10
-2.710447e-11
1.581142e-10
-6.699983e-10
-5.039312e-09
-1.864771e-09
-7.050394e-09
-1.870478e-09
2.332816e-09
3.329352e-09
3.015169e-09
2.342081e-09
-5.040261e-09
3.019916e-09
3.844932e-11
1.494294e-10
-1.846159e-10
-2.095488e-10
4.601451e-11
3.569126e-10
-5.471486e-10
-9.712615e-10
-1.127128e-09
-9.844873e-10
-5.579846e-10
5.496598e-11
3.868229e-10
1.413252e-10
1.436320e-10
1.602517e-10
1.664438e-10
1.350853e-10
1.506095e-10
1.701409e-10
-8.568556e-11
-1.787302e-10
-1.161020e-10
-6.944370e-11
-1.195272e-10
-1.378726e-10
-3.042453e-10
1.252310e-10
-2.976023e-10
-3.519119e-10
-1.514959e-10
4.742184e-11
1.392554e-10
1.366095e-10
-2.031599e-10
-2.118638e-10
6.978463e-09
7.590682e-09
-1.160838e-08
-1.528400e-08
-1.157691e-08
-5.732548e-09
-5.778355e-09
5.805190e-09
6.991858e-09
5.801485e-09
-1.307488e-09
3.577027e-10
3.894323e-10
-1.291299e-09
-2.345486e-09
-2.353050e-10
3.486904e-10
3.668211e-10
-6.939810e-10
-2.539686e-10
3.843236e-10
4.109509e-10
1.921838e-10
2.025228e-10
-1.153003e-10
-1.392237e-10
-7.795048e-10
-1.374969e-10
6.931461e-10
1.800529e-10
7.270012e-10
3.834837e-10
3.980904e-10
3.763024e-10
2.074626e-10
-1.158905e-10
-1.019081e-10
-1.352272e-10
-2.210670e-10
-5.188575e-10
-5.254349e-10
-2.098815e-10
-6.875949e-10
-1.459056e-10
-7.919363e-10
-1.326837e-10
-1.217059e-09
6.770288e-11
3.302249e-10
8.713736e-11
-1.004040e-08
-2.334283e-08
-1.817790e-08
-1.013756e-08
1.193367e-08
1.104362e-08
-1.824882e-08
9.398640e-09
9.364117e-09
1.100544e-08
-8.439254e-10
-2.702237e-09
4.611481e-10
-8.295537e-10
5.122599e-11
8.674984e-11
7.843071e-10
-2.891981e-10
-3.182076e-10
8.180071e-10
4.708024e-10
-4.476105e-09
-2.724721e-09
-4.091882e-09
-9.356609e-10
-1.113324e-09
-4.068043e-09
-9.118943e-10
-2.097810e-08
-2.088778e-08
1.267449e-08
1.272454e-08
-1.185872e-08
-1.198252e-08
1.089000e-08
1.373734e-08
1.083933e-08
-2.662176e-08
-1.004309e-10
-3.069753e-11
-9.006664e-11
7.901868e-10
7.858393e-10
7.819974e-10
7.691961e-10
7.784425e-10
8.031005e-10
8.180469e-10
1.093183e-10
2.369247e-10
2.286190e-10
-4.367657e-10
-1.481250e-09
-1.605937e-09
-1.491592e-09
-1.158476e-09
-6.856865e-10
-4.286809e-10
7.889648e-10
-3.402231e-11
2.814366e-10
1.077992e-10
-6.883128e-10
7.882046e-10
-1.150785e-09
-4.665077e-09
-7.184969e-09
-3.906585e-10
-3.526480e-10
-6.562795e-10
-6.160346e-10
1.296424e-09
1.346986e-09
-1.579655e-09
-4.639601e-09
-1.047350e-08
-9.802158e-09
-9.764975e-09
-3.372831e-10
-1.596205e-09
-1.650584e-09
-1.803465e-09
-3.449419e-09
-1.751707e-09
-7.102129e-09
1.913779e-09
1.260313e-09
1.988290e-09
-3.466793e-09
1.236073e-09
-1.977694e-09
-3.903268e-10
-7.132828e-09
6.096616e-10
-2.225581e-10
6.807634e-10
1.187196e-09
6.969541e-10
1.193236e-09
-1.164792e-09
-6.328427e-10
-1.167452e-09
-6.309403e-10
1.526079e-09
7.010128e-11
6.094262e-10
7.580695e-11
-3.945972e-10
-3.946996e-10
-2.218477e-10
-1.482689e-09
9.849609e-10
-6.220080e-11
-9.077192e-10
1.858041e-09
1.911669e-09
-7.260718e-10
-4.771681e-09
-3.149125e-09
-6.924561e-10
1.856474e-10
2.179285e-10
-3.117390e-09
1.578119e-09
-2.512008e-09
1.596582e-09
1.594277e-09
1.553606e-09
1.626790e-09
-1.038739e-09
-2.501446e-09
-3.434523e-09
-1.029758e-09
-9.647294e-09
-9.685247e-09
-3.042169e-10
-3.729450e-10
-3.097111e-09
-1.380854e-08
-3.031779e-09
2.521742e-09
-2.335638e-09
2.619233e-09
1.446399e-09
1.912881e-09
8.074756e-10
-8.633528e-10
-9.146450e-10
-9.279851e-10
1.918764e-09
2.091063e-09
4.699757e-10
1.446732e-09
8.085553e-10
4.717311e-10
-8.293859e-10
-9.253665e-10
-9.185694e-10
-9.121116e-10
-8.646488e-10
-8.363548e-10
-6.586297e-09
-1.176874e-08
-2.750340e-10
-2.058668e-09
-4.300401e-09
-4.221349e-09
-1.554258e-08
-1.559093e-08
2.977745e-09
-2.144175e-09
-3.587192e-10
2.027748e-09
3.095163e-09
-1.648999e-08
-1.181346e-08
-6.613282e-09
1.992166e-09
-2.587256e-09
2.923908e-09
-4.927636e-09
2.923772e-09
2.937794e-09
2.885827e-09
2.884239e-09
2.955335e-09
2.954966e-09
-2.192992e-09
-3.077080e-09
-6.671831e-09
-6.286497e-09
-3.072625e-09
-2.184837e-09
-6.268525e-09
2.909196e-09
2.943471e-09
-4.914225e-09
-2.767409e-09
-5.088597e-09
-1.839361e-08
-4.995161e-09
3.319252e-09
3.456334e-09
-1.328441e-08
-1.323154e-08
-3.378356e-10
-2.381200e-10
1.366955e-09
2.244089e-09
6.215221e-11
1.370857e-09
5.291464e-11
-7.928136e-10
1.790092e-10
-2.280546e-10
-8.036474e-10
-2.322081e-10
3.048331e-09
-2.391314e-09
3.152115e-09
-2.501209e-09
-2.416790e-09
-1.917800e-10
-2.539973e-10
-1.105787e-08
-7.661041e-09
-7.593937e-09
-1.363064e-08
-1.368493e-08
-7.913454e-09
-1.885784e-08
2.269541e-09
-2.548232e-10
-3.560290e-10
2.310314e-09
-1.781775e-08
-1.787115e-08
-7.881784e-09
-5.355217e-09
-5.259432e-09
-2.825555e-09
3.377560e-09
-2.335641e-09
3.515992e-09
-2.234247e-09
-2.133819e-09
4.134559e-09
3.014983e-09
-2.017336e-09
3.018058e-09
1.247010e-09
1.238882e-09
-1.724957e-09
-1.738553e-09
-2.013436e-09
4.732613e-09
4.689075e-09
4.750973e-09
4.699642e-09
4.722380e-09
-4.041344e-09
-8.243020e-09
-1.093331e-08
-4.034673e-09
-8.258389e-09
4.846766e-09
3.133438e-09
5.904101e-09
4.846900e-09
3.132371e-09
-6.473534e-09
-2.964608e-09
-2.979747e-09
-5.121874e-09
-5.123991e-09
-4.912613e-10
-5.938358e-12
9.265396e-10
1.627158e-09
1.886354e-09
1.630567e-09
9.301246e-10
-1.208622e-11
-5.030623e-10
-7.798871e-10
-3.849652e-09
-4.738203e-09
-1.723649e-08
-4.593888e-09
-1.220393e-08
3.765053e-09
3.948764e-09
-1.231489e-08
-8.890283e-10
-3.213130e-09
-3.235657e-09
-4.186118e-09
7.087550e-09
2.697731e-09
5.639757e-09
5.652749e-09
2.675310e-09
-3.440157e-09
-3.895670e-09
-3.447363e-09
-3.891091e-09
7.077654e-09
7.508304e-09
3.655205e-09
3.659984e-09
-4.245881e-09
-4.190774e-09
-1.244392e-08
6.980876e-09
6.894653e-09
6.986080e-09
6.967168e-09
-1.245326e-08
-1.542280e-08
6.833195e-09
6.914794e-09
6.865400e-09
6.976121e-09
-8.402541e-09
-1.619451e-08
-6.547253e-09
-8.407853e-09
-6.555407e-09
6.998232e-09
-1.541004e-08
-5.551135e-10
1.570015e-09
-5.654752e-10
1.569857e-09
2.974646e-09
1.306301e-09
7.068508e-09
4.798217e-09
1.291577e-09
-1.194625e-09
-2.360901e-09
-3.665447e-10
-2.368100e-09
-1.188200e-09
4.793537e-09
9.013077e-09
9.249228e-09
9.045584e-09
-9.236830e-09
-1.678636e-08
-9.264481e-09
9.259173e-09
9.338506e-09
-1.678639e-08
-2.156605e-08
4.884716e-09
4.849291e-09
9.168766e-09
-7.103606e-09
-5.280598e-09
-5.311530e-09
-6.460910e-09
1.183934e-08
9.142500e-09
-6.458466e-09
3.972801e-09
-4.413691e-09
-1.165638e-09
4.202184e-09
-5.651473e-09
-1.959182e-08
-1.411543e-08
-5.479279e-09
-1.398350e-08
-1.031294e-09
-5.310821e-10
4.616828e-10
2.490392e-09
3.987811e-09
3.986533e-09
4.582989e-10
-5.213456e-10
4.457960e-09
2.475076e-09
8.501719e-09
8.442646e-09
-8.312339e-09
-1.619451e-08
-8.397389e-09
-1.314577e-08
1.205501e-08
1.432457e-08
1.210396e-08
-1.318032e-08
1.094531e-08
1.079307e-08
1.128212e-08
1.112157e-08
1.083076e-08
-1.159695e-08
-2.589541e-08
-2.036646e-08
-1.164269e-08
1.091741e-08
1.113107e-08
1.123758e-08
-1.434775e-08
-1.432784e-08
-2.037822e-08
-2.478147e-08
-2.479146e-08
1.125819e-08
9.510969e-09
1.339479e-08
1.624109e-08
-1.041603e-08
-9.586112e-09
-8.375345e-09
1.701369e-08
7.713020e-09
9.498627e-09
7.655422e-09
-1.058794e-08
-1.039870e-08
-7.804538e-09
-8.397104e-09
-7.853137e-09
-9.581493e-09
1.344078e-08
1.628506e-08
-3.665901e-10
3.557037e-09
6.081622e-09
3.525899e-09
-3.356082e-10
1.238715e-08
-2.280443e-08
-2.278168e-08
1.198087e-08