# vtk DataFile Version 3.0
Unstructured Grid Example
ASCII
DATASET UNSTRUCTURED_GRID
POINTS 1641 float
-9.500000e-01	 0	 0
-9.500000e-01	 0	 3.750000e-01
-9.500000e-01	 0	 1.125000e+00
-9.500000e-01	 0	 1.500000e+00
-9.500000e-01	 0	 1.875000e+00
-9.500000e-01	 0	 2.250000e+00
-9.500000e-01	 0	 2.625000e+00
-9.500000e-01	 0	 3
-9.500000e-01	 0	 7.500000e-01
-9.341401e-01	 -1.728649e-01	 1.500000e+00
-9.341401e-01	 -1.728649e-01	 0
-9.341401e-01	 -1.728649e-01	 3.000000e+00
-9.341401e-01	 1.728649e-01	 2.250000e+00
-9.341401e-01	 1.728649e-01	 0
-9.341401e-01	 1.728649e-01	 1.500000e+00
-9.341401e-01	 1.728649e-01	 3.000000e+00
-9.341401e-01	 -1.728649e-01	 7.500000e-01
-9.341401e-01	 -1.728649e-01	 2.250000e+00
-9.341401e-01	 1.728649e-01	 7.500000e-01
-8.832989e-01	 -3.496900e-01	 1.125000e+00
-8.832989e-01	 -3.496900e-01	 1.875000e+00
-8.832989e-01	 -3.496900e-01	 2.625000e+00
-8.832989e-01	 -3.496900e-01	 2.250000e+00
-8.832989e-01	 3.496900e-01	 1.125000e+00
-8.832989e-01	 -3.496900e-01	 0
-8.832989e-01	 -3.496900e-01	 3.000000e+00
-8.832989e-01	 -3.496900e-01	 3.750000e-01
-8.832989e-01	 -3.496900e-01	 7.500000e-01
-8.832989e-01	 3.496900e-01	 3.750000e-01
-8.832989e-01	 3.496900e-01	 7.500000e-01
-8.832989e-01	 3.496900e-01	 2.250000e+00
-8.832989e-01	 3.496900e-01	 2.625000e+00
-8.832989e-01	 3.496900e-01	 0
-8.832989e-01	 3.496900e-01	 1.875000e+00
-8.832989e-01	 3.496900e-01	 3.000000e+00
-8.832989e-01	 -3.496900e-01	 1.500000e+00
-8.832989e-01	 3.496900e-01	 1.500000e+00
-8.787500e-01	 0	 2.250000e+00
-8.787500e-01	 0	 0
-8.787500e-01	 0	 1.500000e+00
-8.787500e-01	 0	 3
-8.787500e-01	 0	 7.500000e-01
-8.149622e-01	 -3.223238e-01	 7.500000e-01
-8.149622e-01	 3.223238e-01	 7.500000e-01
-8.149622e-01	 -3.223238e-01	 2.250000e+00
-8.149622e-01	 3.223238e-01	 2.250000e+00
-8.149622e-01	 -3.223238e-01	 0
-8.149622e-01	 -3.223238e-01	 1.500000e+00
-8.149622e-01	 -3.223238e-01	 3
-8.149622e-01	 3.223238e-01	 1.500000e+00
-8.149622e-01	 3.223238e-01	 0
-8.149622e-01	 3.223238e-01	 3
-8.075000e-01	 0	 7.500000e-01
-8.075000e-01	 0	 2.250000e+00
-8.075000e-01	 0	 3.750000e-01
-8.075000e-01	 0	 1.875000e+00
-8.075000e-01	 0	 2.625000e+00
-8.075000e-01	 0	 0
-8.075000e-01	 0	 1.125000e+00
-8.075000e-01	 0	 1.500000e+00
-8.075000e-01	 0	 3
-7.951457e-01	 -5.198493e-01	 7.500000e-01
-7.951457e-01	 5.198493e-01	 7.500000e-01
-7.951457e-01	 -5.198493e-01	 0
-7.951457e-01	 -5.198493e-01	 1.500000e+00
-7.951457e-01	 -5.198493e-01	 2.250000e+00
-7.951457e-01	 -5.198493e-01	 3
-7.951457e-01	 5.198493e-01	 0
-7.951457e-01	 5.198493e-01	 1.500000e+00
-7.951457e-01	 5.198493e-01	 2.250000e+00
-7.951457e-01	 5.198493e-01	 3
-7.894916e-01	 -1.451644e-01	 7.500000e-01
-7.894916e-01	 1.451644e-01	 7.500000e-01
-7.894916e-01	 1.451644e-01	 0
-7.894916e-01	 1.451644e-01	 3
-7.894916e-01	 -1.451644e-01	 0
-7.894916e-01	 -1.451644e-01	 1.500000e+00
-7.894916e-01	 -1.451644e-01	 2.250000e+00
-7.894916e-01	 -1.451644e-01	 3
-7.894916e-01	 1.451644e-01	 1.500000e+00
-7.894916e-01	 1.451644e-01	 2.250000e+00
-7.430021e-01	 -2.929055e-01	 1.500000e+00
-7.430021e-01	 2.929055e-01	 1.500000e+00
-7.430021e-01	 -2.929055e-01	 2.250000e+00
-7.430021e-01	 -2.929055e-01	 0
-7.430021e-01	 -2.929055e-01	 3.000000e+00
-7.430021e-01	 2.929055e-01	 3.750000e-01
-7.430021e-01	 -2.929055e-01	 3.750000e-01
-7.430021e-01	 -2.929055e-01	 1.125000e+00
-7.430021e-01	 -2.929055e-01	 1.875000e+00
-7.430021e-01	 -2.929055e-01	 2.625000e+00
-7.430021e-01	 2.929055e-01	 1.125000e+00
-7.430021e-01	 2.929055e-01	 0
-7.430021e-01	 2.929055e-01	 1.875000e+00
-7.430021e-01	 2.929055e-01	 2.250000e+00
-7.430021e-01	 2.929055e-01	 2.625000e+00
-7.430021e-01	 2.929055e-01	 3.000000e+00
-7.430021e-01	 2.929055e-01	 7.500000e-01
-7.430021e-01	 -2.929055e-01	 7.500000e-01
-7.362500e-01	 0	 0
-7.362500e-01	 0	 7.500000e-01
-7.362500e-01	 0	 1.500000e+00
-7.362500e-01	 0	 2.250000e+00
-7.362500e-01	 0	 3
-6.717514e-01	 -6.717514e-01	 2.625000e+00
-6.717514e-01	 6.717514e-01	 2.625000e+00
-6.717514e-01	 -6.717514e-01	 0
-6.717514e-01	 -6.717514e-01	 3.750000e-01
-6.717514e-01	 -6.717514e-01	 7.500000e-01
-6.717514e-01	 -6.717514e-01	 1.125000e+00
-6.717514e-01	 -6.717514e-01	 1.875000e+00
-6.717514e-01	 -6.717514e-01	 3.000000e+00
-6.717514e-01	 -6.717514e-01	 2.250000e+00
-6.717514e-01	 6.717514e-01	 1.500000e+00
-6.717514e-01	 6.717514e-01	 0
-6.717514e-01	 6.717514e-01	 3.750000e-01
-6.717514e-01	 6.717514e-01	 7.500000e-01
-6.717514e-01	 6.717514e-01	 1.125000e+00
-6.717514e-01	 6.717514e-01	 1.875000e+00
-6.717514e-01	 6.717514e-01	 3.000000e+00
-6.717514e-01	 -6.717514e-01	 1.500000e+00
-6.717514e-01	 6.717514e-01	 2.250000e+00
-6.682985e-01	 -2.618048e-01	 0
-6.682985e-01	 -2.618048e-01	 1.500000e+00
-6.682985e-01	 -2.618048e-01	 3
-6.682985e-01	 -2.618048e-01	 7.500000e-01
-6.682985e-01	 -2.618048e-01	 2.250000e+00
-6.682985e-01	 2.618048e-01	 7.500000e-01
-6.682985e-01	 2.618048e-01	 2.250000e+00
-6.682985e-01	 2.618048e-01	 0
-6.682985e-01	 2.618048e-01	 1.500000e+00
-6.682985e-01	 2.618048e-01	 3
-6.665713e-01	 -4.348738e-01	 2.250000e+00
-6.665713e-01	 -4.348738e-01	 7.500000e-01
-6.665713e-01	 4.348738e-01	 7.500000e-01
-6.665713e-01	 4.348738e-01	 2.250000e+00
-6.665713e-01	 -4.348738e-01	 0
-6.665713e-01	 -4.348738e-01	 3
-6.665713e-01	 4.348738e-01	 0
-6.665713e-01	 4.348738e-01	 1.500000e+00
-6.665713e-01	 4.348738e-01	 3
-6.665713e-01	 -4.348738e-01	 1.500000e+00
-6.650000e-01	 0	 7.500000e-01
-6.650000e-01	 0	 0
-6.650000e-01	 0	 3.750000e-01
-6.650000e-01	 0	 1.125000e+00
-6.650000e-01	 0	 1.500000e+00
-6.650000e-01	 0	 1.875000e+00
-6.650000e-01	 0	 2.625000e+00
-6.650000e-01	 0	 3
-6.650000e-01	 0	 2.250000e+00
-6.383743e-01	 -1.144482e-01	 0
-6.383743e-01	 -1.144482e-01	 3.000000e+00
-6.383743e-01	 -1.144482e-01	 7.500000e-01
-6.383743e-01	 -1.144482e-01	 1.500000e+00
-6.383743e-01	 -1.144482e-01	 2.250000e+00
-6.383743e-01	 1.144482e-01	 7.500000e-01
-6.383743e-01	 1.144482e-01	 1.500000e+00
-6.383743e-01	 1.144482e-01	 0
-6.383743e-01	 1.144482e-01	 2.250000e+00
-6.383743e-01	 1.144482e-01	 3.000000e+00
-6.189903e-01	 -6.189903e-01	 0
-6.189903e-01	 -6.189903e-01	 1.500000e+00
-6.189903e-01	 -6.189903e-01	 3.000000e+00
-6.189903e-01	 6.189903e-01	 2.250000e+00
-6.189903e-01	 6.189903e-01	 0
-6.189903e-01	 6.189903e-01	 1.500000e+00
-6.189903e-01	 6.189903e-01	 3.000000e+00
-6.189903e-01	 -6.189903e-01	 2.250000e+00
-6.189903e-01	 -6.189903e-01	 7.500000e-01
-6.189903e-01	 6.189903e-01	 7.500000e-01
-5.937500e-01	 0	 0
-5.937500e-01	 0	 7.500000e-01
-5.937500e-01	 0	 1.500000e+00
-5.937500e-01	 0	 2.250000e+00
-5.937500e-01	 0	 3
-5.917666e-01	 2.294176e-01	 1.875000e+00
-5.917666e-01	 2.294176e-01	 2.250000e+00
-5.917666e-01	 -2.294176e-01	 2.250000e+00
-5.917666e-01	 -2.294176e-01	 0
-5.917666e-01	 -2.294176e-01	 2.625000e+00
-5.917666e-01	 -2.294176e-01	 3
-5.917666e-01	 -2.294176e-01	 1.500000e+00
-5.917666e-01	 -2.294176e-01	 1.875000e+00
-5.917666e-01	 2.294176e-01	 0
-5.917666e-01	 2.294176e-01	 2.625000e+00
-5.917666e-01	 2.294176e-01	 3
-5.917666e-01	 2.294176e-01	 1.500000e+00
-5.917666e-01	 -2.294176e-01	 3.750000e-01
-5.917666e-01	 -2.294176e-01	 7.500000e-01
-5.917666e-01	 -2.294176e-01	 1.125000e+00
-5.917666e-01	 2.294176e-01	 7.500000e-01
-5.917666e-01	 2.294176e-01	 1.125000e+00
-5.917666e-01	 2.294176e-01	 3.750000e-01
-5.620800e-01	 5.620800e-01	 1.125000e+00
-5.620800e-01	 -5.620800e-01	 1.125000e+00
-5.620800e-01	 -5.620800e-01	 3.750000e-01
-5.620800e-01	 -5.620800e-01	 7.500000e-01
-5.620800e-01	 -5.620800e-01	 1.875000e+00
-5.620800e-01	 -5.620800e-01	 2.625000e+00
-5.620800e-01	 5.620800e-01	 3.750000e-01
-5.620800e-01	 5.620800e-01	 7.500000e-01
-5.620800e-01	 5.620800e-01	 1.875000e+00
-5.620800e-01	 -5.620800e-01	 0
-5.620800e-01	 -5.620800e-01	 1.500000e+00
-5.620800e-01	 -5.620800e-01	 2.250000e+00
-5.620800e-01	 -5.620800e-01	 3
-5.620800e-01	 5.620800e-01	 0
-5.620800e-01	 5.620800e-01	 1.500000e+00
-5.620800e-01	 5.620800e-01	 2.250000e+00
-5.620800e-01	 5.620800e-01	 3
-5.620800e-01	 5.620800e-01	 2.625000e+00
-5.250231e-01	 -3.396892e-01	 7.500000e-01
-5.250231e-01	 3.396892e-01	 1.500000e+00
-5.250231e-01	 3.396892e-01	 2.250000e+00
-5.250231e-01	 3.396892e-01	 7.500000e-01
-5.250231e-01	 -3.396892e-01	 2.250000e+00
-5.250231e-01	 -3.396892e-01	 0
-5.250231e-01	 -3.396892e-01	 1.500000e+00
-5.250231e-01	 -3.396892e-01	 3.000000e+00
-5.250231e-01	 3.396892e-01	 0
-5.250231e-01	 3.396892e-01	 3.000000e+00
-5.225000e-01	 0	 1.500000e+00
-5.225000e-01	 0	 2.250000e+00
-5.225000e-01	 0	 0
-5.225000e-01	 0	 3.750000e-01
-5.225000e-01	 0	 7.500000e-01
-5.225000e-01	 0	 1.125000e+00
-5.225000e-01	 0	 1.875000e+00
-5.225000e-01	 0	 2.625000e+00
-5.225000e-01	 0	 3
-5.198493e-01	 7.951457e-01	 7.500000e-01
-5.198493e-01	 -7.951457e-01	 7.500000e-01
-5.198493e-01	 -7.951457e-01	 0
-5.198493e-01	 -7.951457e-01	 1.500000e+00
-5.198493e-01	 -7.951457e-01	 2.250000e+00
-5.198493e-01	 -7.951457e-01	 3
-5.198493e-01	 7.951457e-01	 0
-5.198493e-01	 7.951457e-01	 1.500000e+00
-5.198493e-01	 7.951457e-01	 2.250000e+00
-5.198493e-01	 7.951457e-01	 3
-5.143216e-01	 -1.961513e-01	 2.250000e+00
-5.143216e-01	 1.961513e-01	 7.500000e-01
-5.143216e-01	 1.961513e-01	 1.500000e+00
-5.143216e-01	 -1.961513e-01	 7.500000e-01
-5.143216e-01	 -1.961513e-01	 0
-5.143216e-01	 -1.961513e-01	 3.000000e+00
-5.143216e-01	 -1.961513e-01	 1.500000e+00
-5.143216e-01	 1.961513e-01	 2.250000e+00
-5.143216e-01	 1.961513e-01	 0
-5.143216e-01	 1.961513e-01	 3.000000e+00
-5.020120e-01	 -5.020120e-01	 7.500000e-01
-5.020120e-01	 -5.020120e-01	 1.500000e+00
-5.020120e-01	 5.020120e-01	 7.500000e-01
-5.020120e-01	 5.020120e-01	 1.500000e+00
-5.020120e-01	 -5.020120e-01	 0
-5.020120e-01	 -5.020120e-01	 2.250000e+00
-5.020120e-01	 -5.020120e-01	 3.000000e+00
-5.020120e-01	 5.020120e-01	 0
-5.020120e-01	 5.020120e-01	 2.250000e+00
-5.020120e-01	 5.020120e-01	 3.000000e+00
-4.847636e-01	 8.158725e-02	 7.500000e-01
-4.847636e-01	 -8.158725e-02	 7.500000e-01
[...]
POINT_DATA 1641
SCALARS pres_adim float 1
LOOKUP_TABLE default
-6.129338e-03
-1.736625e-03
5.873033e-03
3.066240e-03
-6.200690e-04
-2.471040e-03
6.800092e-04
3.172790e-03
4.278797e-03
-8.349438e+01
-8.728604e+01
-8.727862e+01
8.517535e+01
8.727843e+01
8.349992e+01
8.728056e+01
-8.517285e+01
-8.517760e+01
8.517741e+01
-1.608224e+02
-1.608182e+02
-1.658850e+02
-1.631475e+02
1.608187e+02
-1.671430e+02
-1.671480e+02
-1.658832e+02
-1.631512e+02
1.658842e+02
1.631459e+02
1.631518e+02
1.658820e+02
1.671480e+02
1.608253e+02
1.671402e+02
-1.599649e+02
1.599678e+02
-2.421215e-03
-5.925041e-03
2.861026e-03
3.311355e-03
4.296710e-03
-1.605830e+02
1.605780e+02
-1.605793e+02
1.605837e+02
-1.644985e+02
-1.574449e+02
-1.645033e+02
1.574477e+02
1.645036e+02
1.644959e+02
3.850739e-03
-1.977677e-03
-7.440112e-04
-1.250314e-03
1.401546e-03
-4.405186e-03
4.321760e-03
1.694913e-03
3.678939e-03
-2.183932e+02
2.183830e+02
-2.237995e+02
-2.140532e+02
-2.183848e+02
-2.238124e+02
2.238111e+02
2.140530e+02
2.183911e+02
2.238021e+02
-7.964521e+01
7.964960e+01
8.155129e+01
8.155316e+01
-8.155607e+01
-7.810873e+01
-7.964937e+01
-8.154939e+01
7.811156e+01
7.964769e+01
-1.492906e+02
1.492922e+02
-1.521938e+02
-1.557915e+02
-1.557947e+02
1.546641e+02
-1.546624e+02
-1.500753e+02
-1.500723e+02
-1.546635e+02
1.500723e+02
1.557962e+02
1.500773e+02
1.521975e+02
1.546622e+02
1.557898e+02
1.521930e+02
-1.521964e+02
-2.622448e-03
3.480105e-03
2.618957e-04
-1.529249e-03
4.273265e-03
-2.421655e+02
2.421671e+02
-2.439864e+02
-2.421647e+02
-2.381795e+02
-2.347797e+02
-2.347789e+02
-2.439893e+02
-2.381785e+02
2.335408e+02
2.439888e+02
2.421652e+02
2.381771e+02
2.347774e+02
2.347749e+02
2.439919e+02
-2.335440e+02
2.381760e+02
-1.416647e+02
-1.359535e+02
-1.416663e+02
-1.385333e+02
-1.385316e+02
1.385317e+02
1.385348e+02
1.416694e+02
1.359537e+02
1.416643e+02
-2.038391e+02
-2.038456e+02
2.038383e+02
2.038447e+02
-2.087138e+02
-2.087238e+02
2.087231e+02
1.998874e+02
2.087154e+02
-1.998870e+02
3.011887e-03
-7.904966e-04
1.191518e-03
1.172944e-03
-1.151091e-03
-2.458514e-03
2.691193e-03
4.691937e-03
-1.079078e-03
-6.483968e+01
-6.483494e+01
-6.346982e+01
-6.232010e+01
-6.347262e+01
6.347380e+01
6.231725e+01
6.484080e+01
6.347194e+01
6.484208e+01
-2.403116e+02
-2.300362e+02
-2.403144e+02
2.346047e+02
2.403139e+02
2.300334e+02
2.403167e+02
-2.346069e+02
-2.346079e+02
2.346058e+02
9.534706e-04
2.401229e-03
-2.538180e-03
-7.013800e-04
4.968542e-03
1.184309e+02
1.199725e+02
-1.199701e+02
-1.224868e+02
-1.217030e+02
-1.224871e+02
-1.178400e+02
-1.184302e+02
1.224914e+02
1.217051e+02
1.224877e+02
1.178386e+02
-1.217034e+02
-1.199709e+02
-1.184310e+02
1.199711e+02
1.184291e+02
1.217065e+02
2.191561e+02
-2.191566e+02
-2.258459e+02
-2.222522e+02
-2.191558e+02
-2.258466e+02
2.258461e+02
2.222510e+02
2.191546e+02
-2.274775e+02
-2.180236e+02
-2.222513e+02
-2.274800e+02
2.274788e+02
2.180227e+02
2.222503e+02
2.274805e+02
2.258472e+02
-1.595127e+02
1.566452e+02
1.595136e+02
1.595113e+02
-1.595098e+02
-1.628703e+02
-1.566440e+02
-1.628741e+02
1.628749e+02
1.628700e+02
-3.131018e-03
-5.401802e-04
1.793660e-03
2.090781e-03
1.865149e-03
-1.090129e-03
-2.855856e-03
2.784446e-03
4.669676e-03
2.183931e+02
-2.183868e+02
-2.238061e+02
-2.140584e+02
-2.183945e+02
-2.237952e+02
2.237979e+02
2.140529e+02
2.183840e+02
2.238100e+02
-9.817393e+01
9.817551e+01
9.652091e+01
-9.817422e+01
-1.000472e+02
-1.000463e+02
-9.652364e+01
9.817548e+01
1.000515e+02
1.000492e+02
-2.018568e+02
-1.981111e+02
2.018569e+02
1.981127e+02
-2.063882e+02
-2.018560e+02
-2.063904e+02
2.063884e+02
2.018564e+02
2.063887e+02
4.080032e+01
-4.079776e+01
-4.153611e+01
-4.012602e+01
-4.153364e+01
-4.079916e+01
4.154052e+01
4.012005e+01
4.079873e+01
4.154107e+01
-3.341826e-03
-4.292263e-04
2.250333e-03
1.122994e-03
3.895354e-03
-1.713429e+02
1.713462e+02
-1.771509e+02
-1.760361e+02
-1.771526e+02
-1.760357e+02
-1.704923e+02
1.713460e+02
1.771498e+02
1.760347e+02
1.771491e+02
-1.713420e+02
-1.735563e+02
1.735579e+02
1.760350e+02
1.704960e+02
1.735584e+02
-1.735572e+02
-7.401750e+01
-7.366807e+01
7.574216e+01
7.574119e+01
7.366490e+01
7.401597e+01
-7.485535e+01
-7.573859e+01
-7.573959e+01
-7.485556e+01
7.613842e+01
7.485686e+01
7.485620e+01
7.613682e+01
7.401573e+01
-7.401762e+01
-7.613471e+01
-7.613381e+01
2.038392e+02
-2.038464e+02
2.087130e+02
2.087219e+02
-2.038406e+02
-2.087206e+02
-1.998885e+02
-2.087126e+02
1.998864e+02
2.038460e+02
1.879365e-03
1.212537e-03
5.008957e-04
-1.557313e-03
-2.928889e-03
-2.215304e-03
-4.926623e-04
1.443984e-03
2.898910e-03
-9.755950e+01
-9.755841e+01
-9.920655e+01
-9.920684e+01
-9.600697e+01
9.920777e+01
9.600773e+01
9.756016e+01
9.920557e+01
9.756052e+01
-1.405863e+02
-1.432086e+02
-1.405872e+02
-1.382479e+02
-1.432100e+02
1.432065e+02
1.405890e+02
1.382530e+02
1.432052e+02
1.405886e+02
-5.220463e+01
-5.297913e+01
-5.297820e+01
5.298178e+01
5.298095e+01
5.220458e+01
-5.220476e+01
5.220542e+01
5.143605e+01
-5.143925e+01
-1.608240e+02
-1.671433e+02
-1.608308e+02
-1.671335e+02
-1.599732e+02
1.671383e+02
1.671427e+02
1.608245e+02
1.608206e+02
1.658820e+02
-1.658821e+02
-1.631492e+02
-1.631548e+02
-1.658783e+02
1.599673e+02
1.658808e+02
1.631482e+02
1.631522e+02
-1.595102e+02
-1.566380e+02
-1.595123e+02
1.595114e+02
1.595141e+02
-1.628777e+02
-1.628759e+02
1.628711e+02
1.566429e+02
1.628740e+02
-1.837551e+01
-1.810346e+01
-1.864162e+01
-1.837589e+01
-1.864069e+01
1.864451e+01
1.809886e+01
1.837493e+01
1.864468e+01
1.837564e+01
-1.605809e+02
-1.605864e+02
1.605839e+02
1.605801e+02
-1.644992e+02
-1.644898e+02
1.644941e+02
1.574469e+02
1.644985e+02
-1.574523e+02
-1.056587e+02
1.056603e+02
1.044988e+02
-1.044951e+02
-1.074138e+02
-1.068709e+02
-1.040005e+02
-1.044944e+02
-1.068707e+02
-1.074148e+02
1.074116e+02
1.068694e+02
1.040050e+02
1.044989e+02
1.068686e+02
1.074102e+02
-1.056578e+02
1.056598e+02
-1.492935e+02
-1.546633e+02
1.546615e+02
1.521947e+02
1.492906e+02
-1.557940e+02
-1.500793e+02
-1.521992e+02
-1.546608e+02
-1.557871e+02
1.500760e+02
1.500731e+02
1.557889e+02
1.557921e+02
-1.500743e+02
-1.521949e+02
1.521975e+02
1.546624e+02
-3.246403e+01
-3.259713e+01
-3.186166e+01
-3.171570e+01
-3.186163e+01
-3.216878e+01
-3.246329e+01
-3.259639e+01
3.259872e+01
3.216850e+01
3.216805e+01
3.246375e+01
3.259828e+01
3.185995e+01
3.171311e+01
-3.216898e+01
3.246411e+01
3.185965e+01
-1.416698e+02
-1.359507e+02
-1.416658e+02
1.416644e+02
1.359510e+02
1.416666e+02
-1.385321e+02
-1.385351e+02
1.385345e+02
1.385328e+02
-7.325098e+01
-7.222375e+01
-7.118220e+01
-7.325135e+01
7.324915e+01
7.222438e+01
7.118530e+01
7.324789e+01
-7.222297e+01
7.222401e+01
-9.755847e+01
9.756051e+01
9.756013e+01
-9.921286e+01
-9.599894e+01
-9.755829e+01
-9.921413e+01
9.920803e+01
9.920763e+01
9.600554e+01
1.362013e+01
-1.362255e+01
-4.006294e+01
-1.396007e+01
-1.395943e+01
4.006257e+01
-4.116330e+01
-4.063410e+01
-4.116277e+01
-4.063459e+01
-1.380092e+01
-1.380102e+01
1.396120e+01
1.379975e+01
1.396128e+01
1.379953e+01
4.063397e+01
4.116337e+01
4.063362e+01
4.116268e+01
1.199714e+02
-1.199717e+02
-1.178318e+02
-1.217085e+02
1.217056e+02
-1.224945e+02
-1.217086e+02
-1.224932e+02
1.199722e+02
1.224889e+02
1.217061e+02
1.224901e+02
-1.184256e+02
-1.199699e+02
-1.184242e+02
1.184284e+02
1.178350e+02
1.184277e+02
9.817518e+01
-9.651154e+01
-1.000566e+02
-1.000578e+02
1.000513e+02
1.000515e+02
-9.817328e+01
-9.817398e+01
9.651684e+01
9.817518e+01
-4.361854e+01
4.361798e+01
-4.400160e+01
-8.501040e-04
-8.688293e-04
4.399982e+01
-4.417867e+01
-4.321148e+01
-4.300979e+01
-4.321103e+01
-4.361794e+01
-4.400091e+01
-4.417851e+01
-2.558148e-04
-6.090371e-04
3.170367e-04
-8.422963e-04
7.943807e-04
-8.622052e-04
4.417763e+01
4.321224e+01
4.301129e+01
4.321232e+01
4.361778e+01
4.399937e+01
4.417682e+01
-8.784080e-04
8.350014e+01
-8.727604e+01
-8.350437e+01
-8.727652e+01
8.728038e+01
8.727280e+01
-8.517643e+01
-8.517886e+01
8.517334e+01
8.517840e+01
-7.400890e+01
7.401316e+01
-7.365610e+01
-7.400844e+01
7.401367e+01
7.485626e+01
7.366124e+01
-7.574682e+01
-7.614372e+01
-7.485453e+01
-7.485480e+01
-7.614547e+01
7.613933e+01
7.613916e+01
7.574286e+01
-7.574566e+01
7.574279e+01
7.485607e+01
-7.965015e+01
-8.155061e+01
-8.155182e+01
7.964582e+01
-7.811311e+01
-7.964828e+01
8.155314e+01
7.811060e+01
7.965008e+01
8.154718e+01
-2.525162e+01
2.525029e+01
2.492292e+01
-4.005913e+01
-4.116615e+01
-4.063378e+01
-4.116640e+01
-2.525125e+01
-2.553631e+01
-2.492239e+01
-2.553579e+01
-8.656075e+00
-8.440897e+00
-8.558031e+00
-8.655442e+00
-8.558165e+00
8.556214e+00
8.656294e+00
8.656537e+00
8.556215e+00
2.553584e+01
2.525018e+01
2.553551e+01
4.116434e+01
4.063390e+01
4.116362e+01
4.006178e+01
-4.063428e+01
8.440238e+00
4.063394e+01
-5.220382e+01
-5.142915e+01
-5.298658e+01
-5.298823e+01
-5.220399e+01
5.143329e+01
5.220468e+01
5.298348e+01
5.298295e+01
5.220497e+01
-6.484368e+01
-6.347133e+01
-6.484635e+01
6.484282e+01
6.484003e+01
6.231378e+01
6.347299e+01
6.347039e+01
-6.347222e+01
-6.231306e+01
1.128383e+01
-3.185719e+01
-3.170923e+01
-1.151570e+01
-1.151496e+01
-1.143091e+01
1.151407e+01
3.246537e+01
-3.260203e+01
-3.216848e+01
-3.216826e+01
-3.246728e+01
-3.260269e+01
-3.185672e+01
-1.155156e+01
-1.155089e+01
-1.143105e+01
-1.133331e+01
-1.128366e+01
1.155163e+01
1.142925e+01
1.133281e+01
1.142920e+01
1.151404e+01
1.155177e+01
3.216833e+01
3.260033e+01
3.185853e+01
3.171165e+01
3.185906e+01
3.216841e+01
3.246516e+01
3.259987e+01
-3.246719e+01
-1.133313e+01
1.133271e+01
-4.079794e+01
4.079785e+01
-4.154493e+01
-4.011384e+01
-4.079781e+01
-4.154783e+01
4.154274e+01
4.011595e+01
4.154197e+01
4.079903e+01
-1.837519e+01
-1.380063e+01
2.898101e+00
1.379993e+01
1.809687e+01
-1.864766e+01
-1.809573e+01
-1.837518e+01
-1.864884e+01
-1.361863e+01
-1.396317e+01
-1.396315e+01
-1.380075e+01
-8.557975e+00
-2.922005e+00
-2.899991e+00
-2.921213e+00
-2.868616e+00
-2.900014e+00
2.922505e+00
2.868950e+00
2.898037e+00
2.922977e+00
8.657245e+00
8.657282e+00
8.440315e+00
8.556531e+00
1.379999e+01
1.396285e+01
1.396264e+01
1.361950e+01
1.864665e+01
1.837528e+01
1.864629e+01
1.837496e+01
-8.657147e+00
-8.439650e+00
-8.656479e+00
-8.558078e+00
8.556581e+00
7.295634e-04
8.583905e-04
2.302580e-04
1.744097e-04
-8.038110e-04
-8.409038e-04
4.895502e-03
2.686735e-03
-7.572646e-03
-5.191507e-03
3.540516e-04
3.377809e-03
5.434034e-04
-2.784144e-03
-3.799642e-03
3.393536e-03
4.694553e-03
-4.813959e-03
-3.122159e-03
-3.697451e-03
-2.926239e-03
2.861163e-03
1.412676e-03
1.221308e-03
-7.142526e-04
2.778006e-03
-5.013651e-03
-2.931548e-03
-4.093551e-03
7.558416e-04
-2.000929e-03
-6.841082e-04
2.411164e-03
-5.384727e-03
-1.021729e-03
-1.312560e-03
-1.172897e-03
1.933891e-04
1.657624e-03
3.253586e-03
-3.278907e-03
-6.638589e-03
1.980083e-03
-3.318643e-03
-6.386315e-05
3.747210e-03
1.429917e-03
-7.596795e-03
4.465384e-03
1.079863e-03
-3.975010e-03
-2.677526e-03
4.091020e-04
3.386904e-03
4.341799e-03
-4.509802e-03
-7.493978e-03
4.651301e-03
5.895041e-04
-4.341673e-03
6.240321e-04
-6.749732e-03
-3.757164e-03
-2.475780e-03
3.643127e-04
2.774465e-03
3.755591e-03
2.971716e-03
1.636901e-04
-3.360324e-03
-5.214316e-03
4.584491e-04
1.132113e-03
-7.819570e-05
-8.678322e-05
3.837362e-04
-8.458617e-04
-9.115745e-04
-5.035280e-04
-1.895977e-04
1.794675e-03
-3.849837e-04
1.922177e-03
-3.362516e-04
-6.090302e-04
3.883371e-03
2.245536e-03
-8.527644e-04
-3.948294e-03
-4.979902e-03
-3.285423e-03
-4.161732e-04
2.467617e-03
3.789473e-03
4.398530e-03
-1.357660e-03
4.173162e-03
-5.158461e-04
-6.238011e-03
4.466216e-03
2.331543e-03
-2.013551e-03
-5.506319e-03
-4.245878e-03
2.623412e-03
3.478523e-03
-6.285403e-03
-4.424433e-04
4.336846e-03
-2.557657e-03
-5.501008e-03
-3.133069e-04
2.380203e-03
1.940342e-04
3.895973e-03
1.195187e-03
-4.595131e-03
-3.192773e-03
-1.480150e-03
5.023129e-04
-1.229391e-04
-3.257457e-03
3.415118e-03
-3.792396e-03
-5.714468e-04
7.419395e-04
-2.671314e-03
3.011722e-03
-2.516439e-03
2.010127e-03
-5.140090e-03
-1.803364e-04
3.531137e-03
-2.715370e-03
-4.269161e-03
1.289000e-03
-4.764728e-03
2.809279e-03
4.109199e-03
-7.293595e-03
1.856787e-03
-4.731209e-03
2.708506e-03
-7.916807e-04
-1.546476e-03
4.586817e-03
6.043597e-03
1.892299e-03
-4.313774e-03
-7.552899e-03
-1.476790e-03
-1.166222e-03
-5.995312e-04
6.973538e-04
-9.170831e-04
-7.253227e-04
-4.927536e-04
8.556199e+00
2.869106e+00
-8.654744e+00
-8.557339e+00
-8.439963e+00
-8.654482e+00
8.656082e+00
8.440057e+00
8.657020e+00
-2.868000e+00
1.837535e+01
1.864165e+01
1.810118e+01
1.837490e+01
1.864142e+01
1.395994e+01
1.396047e+01
2.922286e+00
2.898163e+00
2.898074e+00
2.923117e+00
-2.921101e+00
-2.899534e+00
-2.920599e+00
-2.899428e+00
-8.557417e+00
-1.380046e+01
-1.380054e+01
-1.395862e+01
-1.395841e+01
-1.864032e+01
-1.810410e+01
-1.837594e+01
-1.864001e+01
-1.837597e+01
1.379938e+01
1.379960e+01
8.556102e+00
-1.362209e+01
1.362082e+01
4.079897e+01
4.153689e+01
4.012232e+01
4.153518e+01
-4.153526e+01
-4.012771e+01
-4.080017e+01
-4.153456e+01
4.079928e+01
-4.080046e+01
3.246431e+01
1.133228e+01
-1.143013e+01
-1.128237e+01
-3.246312e+01
3.259858e+01
3.216803e+01
3.185863e+01
3.171144e+01
3.185820e+01
3.216745e+01
3.246464e+01
3.259935e+01
1.142923e+01
1.155181e+01
1.133243e+01
1.128331e+01
1.142917e+01
1.151480e+01
1.155270e+01
-1.155028e+01
-1.143007e+01
-1.151429e+01
-1.155000e+01
-1.151419e+01
-3.216861e+01
-3.186125e+01
-3.259660e+01
-3.186134e+01
-3.171491e+01
-3.216890e+01
-3.246301e+01
-3.259607e+01
1.151430e+01
-1.133208e+01
-1.133216e+01
-6.347451e+01
-6.232100e+01
6.347164e+01
6.231734e+01
6.347328e+01
6.483913e+01
6.483561e+01
-6.483743e+01
-6.347371e+01
-6.483785e+01
5.220362e+01
5.298225e+01
5.298303e+01
5.220457e+01
5.143250e+01
-5.220510e+01
-5.297977e+01
-5.297879e+01
-5.143876e+01
-5.220557e+01
2.553702e+01
2.553803e+01
4.063328e+01
8.556771e+00
-8.438368e+00
-8.557011e+00
-4.063371e+01
4.005799e+01
4.116560e+01
4.063284e+01
4.116690e+01
2.525001e+01
2.492068e+01
2.524993e+01
8.556732e+00
-8.655701e+00
-8.655534e+00
-8.557044e+00
-2.553516e+01
-2.525040e+01
-2.525051e+01
-2.553514e+01
-2.492051e+01
-4.116311e+01
-4.063405e+01
-4.116280e+01
-4.006106e+01
8.657173e+00
8.440456e+00
8.657740e+00
8.155330e+01
7.810849e+01
7.965069e+01
8.154771e+01
-7.810770e+01
-7.964948e+01
7.964638e+01
-8.155095e+01
-8.155390e+01
-7.965085e+01
7.574284e+01
7.485603e+01
-7.574096e+01
7.574291e+01
7.613884e+01
7.613978e+01
-7.613689e+01
-7.485639e+01
-7.485739e+01
-7.613492e+01
-7.574012e+01
7.366000e+01
7.485468e+01
7.401160e+01
-7.401853e+01
-7.366786e+01
7.401271e+01
-7.401772e+01
8.517360e+01
8.517921e+01
-8.517873e+01
-8.517707e+01
8.728234e+01
8.727563e+01
-8.727944e+01
-8.349246e+01
-8.728368e+01
8.349543e+01
5.668094e-04
3.382651e-05
6.148018e-04
4.418063e+01
4.320856e+01
4.300608e+01
4.320814e+01
4.361715e+01
4.400273e+01
4.418186e+01
1.134159e-04
1.187742e-03
1.147345e-03
-4.417847e+01
-4.320936e+01
-4.300738e+01
-4.320958e+01
-4.361758e+01
-4.400102e+01
-4.417862e+01
4.400203e+01
9.335734e-05
1.588700e-03
3.041847e-04
-4.400087e+01
4.361730e+01
-4.361738e+01
9.817351e+01
9.651559e+01
-9.817681e+01
-9.817527e+01
1.000514e+02
1.000526e+02
-1.000504e+02
-1.000475e+02
-9.652357e+01
9.817503e+01
1.178344e+02
1.184260e+02
1.184279e+02
-1.199713e+02
-1.184302e+02
-1.184328e+02
1.224894e+02
1.217064e+02
1.224912e+02
1.199716e+02
-1.224908e+02
-1.217045e+02
-1.224867e+02
1.217061e+02
-1.217060e+02
-1.178399e+02
-1.199738e+02
1.199699e+02
1.380035e+01
-1.379962e+01
4.116717e+01
4.063368e+01
4.116791e+01
4.063354e+01
-4.063306e+01
-4.116565e+01
-4.063309e+01
-4.116627e+01
4.005766e+01
1.396208e+01
1.380068e+01
1.396203e+01
-1.396130e+01
-1.396192e+01
-1.379938e+01
-4.005662e+01
1.362107e+01
-1.361726e+01
9.599648e+01
9.921325e+01
9.921574e+01
-9.921062e+01
-9.600510e+01
-9.756047e+01
-9.920894e+01
9.755779e+01
9.755933e+01
-9.755918e+01
7.222268e+01
-7.222334e+01
7.325515e+01
7.222309e+01
7.117555e+01
7.325673e+01
-7.325269e+01
-7.222294e+01
-7.117933e+01
-7.325280e+01
1.385336e+02
1.385315e+02
-1.385324e+02
-1.385360e+02
1.416648e+02
1.359515e+02
1.416676e+02
-1.416689e+02
-1.359533e+02
-1.416638e+02
3.216847e+01
3.185851e+01
3.246613e+01
-3.246610e+01
-3.216743e+01
-3.185531e+01
3.185833e+01
3.171095e+01
3.260129e+01
3.216893e+01
3.246625e+01
3.260125e+01
-3.260075e+01
-3.185544e+01
-3.170736e+01
-3.216721e+01
-3.246663e+01
-3.260187e+01
1.546623e+02
1.521961e+02
-1.521940e+02
-1.500722e+02
1.557892e+02
1.557928e+02
1.500759e+02
1.500735e+02
-1.557957e+02
-1.500768e+02
-1.521987e+02
-1.546626e+02
-1.557898e+02
1.492923e+02
1.521938e+02
1.546613e+02
-1.546642e+02
-1.492904e+02
1.056580e+02
-1.056589e+02
1.074198e+02
1.068749e+02
1.039921e+02
1.044886e+02
1.068761e+02
1.074216e+02
-1.074175e+02
-1.068733e+02
-1.039978e+02
-1.044934e+02
-1.068733e+02
-1.074176e+02
-1.044927e+02
1.044894e+02
1.056586e+02
-1.056584e+02
-1.574448e+02
1.644944e+02
1.574495e+02
1.644988e+02
-1.645029e+02
-1.644962e+02
1.605794e+02
1.605822e+02
-1.605849e+02
-1.605792e+02
1.837596e+01
1.810073e+01
1.864481e+01
1.837654e+01
1.864406e+01
-1.864570e+01
-1.809478e+01
-1.837398e+01
-1.864693e+01
-1.837433e+01
1.628760e+02
1.566370e+02
1.628810e+02
-1.628781e+02
-1.628734e+02
1.595124e+02
1.595090e+02
-1.566435e+02
-1.595136e+02
-1.595104e+02
1.631504e+02
1.631476e+02
1.658803e+02
1.599701e+02
-1.658843e+02
-1.631472e+02
-1.631530e+02
-1.658828e+02
1.608247e+02
1.608220e+02
1.658816e+02
1.671385e+02
1.671430e+02
-1.599647e+02
-1.671473e+02
-1.608236e+02
-1.671405e+02
-1.608181e+02
-5.142714e+01
5.143113e+01
5.220475e+01
-5.220337e+01
5.220547e+01
5.298580e+01
5.298545e+01
-5.298623e+01
-5.298783e+01
-5.220318e+01
1.405865e+02
1.432158e+02
1.405871e+02
1.382393e+02
1.432176e+02
-1.432138e+02
-1.405870e+02
-1.382457e+02
-1.432138e+02
-1.405876e+02
9.755894e+01
9.921626e+01
9.599494e+01
9.755959e+01
9.921653e+01
-9.599601e+01
-9.921503e+01
-9.921670e+01
-9.755836e+01
-9.755846e+01
-1.028318e-03
-5.631438e-04
1.062548e-03
2.699374e-03
3.622113e-03
3.235986e-03
1.484998e-03
-1.106219e-03
-2.108909e-03
2.038439e+02
1.998907e+02
-2.087232e+02
-1.998884e+02
-2.087152e+02
-2.038386e+02
2.087133e+02
2.087222e+02
-2.038441e+02
2.038376e+02
-7.614375e+01
-7.614583e+01
-7.400741e+01
7.401153e+01
7.614307e+01
7.485581e+01
7.485710e+01
7.614208e+01
-7.574608e+01
-7.485460e+01
-7.574704e+01
-7.485438e+01
7.401045e+01
7.365792e+01
7.574557e+01
7.574548e+01
-7.365420e+01
-7.400783e+01
-1.735568e+02
1.735569e+02
1.760395e+02
1.704867e+02
1.735563e+02
-1.735569e+02
-1.713420e+02
1.771567e+02
1.760404e+02
1.771582e+02
1.713383e+02
-1.760386e+02
-1.704915e+02
-1.771556e+02
-1.760387e+02
-1.771561e+02
1.713392e+02
-1.713418e+02
-1.752938e-03
1.289423e-03
-2.721433e-03
1.507803e-03
4.086409e-03
4.154047e+01
4.012059e+01
4.080044e+01
4.153962e+01
-4.079765e+01
-4.154381e+01
-4.011331e+01
-4.154487e+01
-4.079738e+01
4.079976e+01
2.063918e+02
2.018553e+02
2.063928e+02
-2.063916e+02
-2.018553e+02
-2.063927e+02
2.018560e+02
1.981099e+02
-2.018560e+02
-1.981118e+02
1.000560e+02
1.000543e+02
9.817649e+01
-9.650986e+01
-1.000564e+02
-1.000588e+02
-9.817386e+01
9.651299e+01
9.817456e+01
-9.817363e+01
2.237959e+02
2.140620e+02
2.183829e+02
2.238070e+02
-2.238094e+02
-2.140557e+02
-2.183904e+02
-2.237999e+02
-2.183838e+02
2.183907e+02
-2.327519e-03
-9.717522e-04
1.610121e-03
3.092438e-03
3.366839e-03
-1.287116e-03
-2.146598e-03
3.944183e-03
1.040521e-03
1.628810e+02
1.628777e+02
-1.628773e+02
-1.566366e+02
-1.628821e+02
-1.595102e+02
1.595106e+02
1.566350e+02
1.595135e+02
-1.595125e+02
2.258457e+02
2.274783e+02
2.180268e+02
2.222497e+02
2.274791e+02
-2.274790e+02
-2.180257e+02
-2.222491e+02
-2.274808e+02
2.258452e+02
2.222508e+02
2.191573e+02
-2.258457e+02
-2.258455e+02
-2.222508e+02
-2.191562e+02
-2.191574e+02
2.191585e+02
1.217086e+02
1.199709e+02
1.184249e+02
-1.184249e+02
-1.199713e+02
-1.217083e+02
1.178322e+02
1.224937e+02
1.217080e+02
1.224906e+02
-1.178303e+02
-1.184236e+02
-1.224924e+02
-1.217094e+02
-1.224953e+02
-1.199706e+02
1.199737e+02
1.184276e+02
-2.578865e-03
1.783328e-03
3.487089e-03
4.152252e-04
-1.163372e-03
2.346060e+02
-2.346059e+02
-2.346035e+02
2.403101e+02
2.300429e+02
2.403110e+02
2.346046e+02