# vtk DataFile Version 3.0
Unstructured Grid Example
ASCII
DATASET UNSTRUCTURED_GRID
POINTS 832 float
-1	 0	 0
-1	 0	 3.750000e-01
-1	 0	 7.500000e-01
-1	 0	 1.125000e+00
-1	 0	 1.500000e+00
-1	 0	 1.875000e+00
-1	 0	 2.250000e+00
-1	 0	 2.625000e+00
-1	 0	 3
-9.875000e-01	 0	 0
-9.875000e-01	 0	 1.500000e+00
-9.875000e-01	 0	 3
-9.875000e-01	 0	 2.250000e+00
-9.875000e-01	 0	 7.500000e-01
-9.833054e-01	 -1.819631e-01	 7.500000e-01
-9.833054e-01	 -1.819631e-01	 0
-9.833054e-01	 -1.819631e-01	 1.500000e+00
-9.833054e-01	 -1.819631e-01	 3.000000e+00
-9.833054e-01	 1.819631e-01	 2.250000e+00
-9.833054e-01	 1.819631e-01	 0
-9.833054e-01	 1.819631e-01	 1.500000e+00
-9.833054e-01	 1.819631e-01	 3.000000e+00
-9.833054e-01	 1.819631e-01	 7.500000e-01
-9.833054e-01	 -1.819631e-01	 2.250000e+00
-9.750000e-01	 0	 7.500000e-01
-9.750000e-01	 0	 1.125000e+00
-9.750000e-01	 0	 0
-9.750000e-01	 0	 3.750000e-01
-9.750000e-01	 0	 1.875000e+00
-9.750000e-01	 0	 2.625000e+00
-9.750000e-01	 0	 3
-9.750000e-01	 0	 1.500000e+00
-9.750000e-01	 0	 2.250000e+00
-9.625000e-01	 0	 1.500000e+00
-9.625000e-01	 0	 2.250000e+00
-9.625000e-01	 0	 0
-9.625000e-01	 0	 7.500000e-01
-9.625000e-01	 0	 3
-9.587227e-01	 -1.774140e-01	 0
-9.587227e-01	 -1.774140e-01	 3.000000e+00
-9.587227e-01	 -1.774140e-01	 1.500000e+00
-9.587227e-01	 1.774140e-01	 0
-9.587227e-01	 1.774140e-01	 3.000000e+00
-9.587227e-01	 1.774140e-01	 1.500000e+00
-9.587227e-01	 1.774140e-01	 7.500000e-01
-9.587227e-01	 -1.774140e-01	 7.500000e-01
-9.587227e-01	 -1.774140e-01	 2.250000e+00
-9.587227e-01	 1.774140e-01	 2.250000e+00
-9.500000e-01	 0	 0
-9.500000e-01	 0	 3.750000e-01
-9.500000e-01	 0	 1.125000e+00
-9.500000e-01	 0	 1.500000e+00
-9.500000e-01	 0	 1.875000e+00
-9.500000e-01	 0	 2.250000e+00
-9.500000e-01	 0	 2.625000e+00
-9.500000e-01	 0	 3
-9.500000e-01	 0	 7.500000e-01
-9.341401e-01	 -1.728649e-01	 1.500000e+00
-9.341401e-01	 -1.728649e-01	 0
-9.341401e-01	 -1.728649e-01	 3.000000e+00
-9.341401e-01	 1.728649e-01	 2.250000e+00
-9.341401e-01	 1.728649e-01	 0
-9.341401e-01	 1.728649e-01	 1.500000e+00
-9.341401e-01	 1.728649e-01	 3.000000e+00
-9.341401e-01	 -1.728649e-01	 7.500000e-01
-9.341401e-01	 -1.728649e-01	 2.250000e+00
-9.341401e-01	 1.728649e-01	 7.500000e-01
-9.297883e-01	 -3.680947e-01	 1.125000e+00
-9.297883e-01	 -3.680947e-01	 0
-9.297883e-01	 -3.680947e-01	 7.500000e-01
-9.297883e-01	 -3.680947e-01	 1.500000e+00
-9.297883e-01	 -3.680947e-01	 1.875000e+00
-9.297883e-01	 -3.680947e-01	 2.250000e+00
-9.297883e-01	 -3.680947e-01	 2.625000e+00
-9.297883e-01	 -3.680947e-01	 3.000000e+00
-9.297883e-01	 -3.680947e-01	 3.750000e-01
-9.297883e-01	 3.680947e-01	 3.750000e-01
-9.297883e-01	 3.680947e-01	 2.250000e+00
-9.297883e-01	 3.680947e-01	 2.625000e+00
-9.297883e-01	 3.680947e-01	 0
-9.297883e-01	 3.680947e-01	 7.500000e-01
-9.297883e-01	 3.680947e-01	 1.500000e+00
-9.297883e-01	 3.680947e-01	 1.875000e+00
-9.297883e-01	 3.680947e-01	 3.000000e+00
-9.297883e-01	 3.680947e-01	 1.125000e+00
-9.181659e-01	 3.634935e-01	 7.500000e-01
-9.181659e-01	 -3.634935e-01	 0
-9.181659e-01	 -3.634935e-01	 7.500000e-01
-9.181659e-01	 -3.634935e-01	 2.250000e+00
-9.181659e-01	 -3.634935e-01	 3
-9.181659e-01	 3.634935e-01	 0
-9.181659e-01	 3.634935e-01	 2.250000e+00
-9.181659e-01	 3.634935e-01	 3
-9.181659e-01	 -3.634935e-01	 1.500000e+00
-9.181659e-01	 3.634935e-01	 1.500000e+00
-9.065436e-01	 -3.588923e-01	 1.125000e+00
-9.065436e-01	 -3.588923e-01	 2.625000e+00
-9.065436e-01	 -3.588923e-01	 0
-9.065436e-01	 -3.588923e-01	 3.750000e-01
-9.065436e-01	 -3.588923e-01	 1.500000e+00
-9.065436e-01	 -3.588923e-01	 3
-9.065436e-01	 3.588923e-01	 2.625000e+00
-9.065436e-01	 3.588923e-01	 1.125000e+00
-9.065436e-01	 3.588923e-01	 0
-9.065436e-01	 3.588923e-01	 3.750000e-01
-9.065436e-01	 3.588923e-01	 3
-9.065436e-01	 -3.588923e-01	 7.500000e-01
-9.065436e-01	 -3.588923e-01	 1.875000e+00
-9.065436e-01	 3.588923e-01	 1.875000e+00
-9.065436e-01	 3.588923e-01	 1.500000e+00
-9.065436e-01	 -3.588923e-01	 2.250000e+00
-9.065436e-01	 3.588923e-01	 7.500000e-01
-9.065436e-01	 3.588923e-01	 2.250000e+00
-8.949212e-01	 3.542912e-01	 1.500000e+00
-8.949212e-01	 -3.542912e-01	 1.500000e+00
-8.949212e-01	 -3.542912e-01	 0
-8.949212e-01	 -3.542912e-01	 3.000000e+00
-8.949212e-01	 3.542912e-01	 0
-8.949212e-01	 3.542912e-01	 3.000000e+00
-8.949212e-01	 -3.542912e-01	 2.250000e+00
-8.949212e-01	 -3.542912e-01	 7.500000e-01
-8.949212e-01	 3.542912e-01	 2.250000e+00
-8.949212e-01	 3.542912e-01	 7.500000e-01
-8.832989e-01	 -3.496900e-01	 1.125000e+00
-8.832989e-01	 -3.496900e-01	 1.875000e+00
-8.832989e-01	 -3.496900e-01	 2.625000e+00
-8.832989e-01	 -3.496900e-01	 2.250000e+00
-8.832989e-01	 3.496900e-01	 1.125000e+00
-8.832989e-01	 -3.496900e-01	 0
-8.832989e-01	 -3.496900e-01	 3.000000e+00
-8.832989e-01	 -3.496900e-01	 3.750000e-01
-8.832989e-01	 -3.496900e-01	 7.500000e-01
-8.832989e-01	 3.496900e-01	 3.750000e-01
-8.832989e-01	 3.496900e-01	 7.500000e-01
-8.832989e-01	 3.496900e-01	 2.250000e+00
-8.832989e-01	 3.496900e-01	 2.625000e+00
-8.832989e-01	 3.496900e-01	 0
-8.832989e-01	 3.496900e-01	 1.875000e+00
-8.832989e-01	 3.496900e-01	 3.000000e+00
-8.832989e-01	 -3.496900e-01	 1.500000e+00
-8.832989e-01	 3.496900e-01	 1.500000e+00
-8.369955e-01	 -5.472098e-01	 0
-8.369955e-01	 -5.472098e-01	 7.500000e-01
-8.369955e-01	 -5.472098e-01	 1.500000e+00
-8.369955e-01	 -5.472098e-01	 2.250000e+00
-8.369955e-01	 -5.472098e-01	 3
-8.369955e-01	 5.472098e-01	 0
-8.369955e-01	 5.472098e-01	 7.500000e-01
-8.369955e-01	 5.472098e-01	 1.500000e+00
-8.369955e-01	 5.472098e-01	 2.250000e+00
-8.369955e-01	 5.472098e-01	 3
-8.160706e-01	 -5.335295e-01	 7.500000e-01
-8.160706e-01	 5.335295e-01	 7.500000e-01
-8.160706e-01	 -5.335295e-01	 1.500000e+00
-8.160706e-01	 -5.335295e-01	 2.250000e+00
-8.160706e-01	 5.335295e-01	 1.500000e+00
-8.160706e-01	 5.335295e-01	 2.250000e+00
-8.160706e-01	 -5.335295e-01	 0
-8.160706e-01	 -5.335295e-01	 3.000000e+00
-8.160706e-01	 5.335295e-01	 0
-8.160706e-01	 5.335295e-01	 3.000000e+00
-7.951457e-01	 -5.198493e-01	 7.500000e-01
-7.951457e-01	 5.198493e-01	 7.500000e-01
-7.951457e-01	 -5.198493e-01	 0
-7.951457e-01	 -5.198493e-01	 1.500000e+00
-7.951457e-01	 -5.198493e-01	 2.250000e+00
-7.951457e-01	 -5.198493e-01	 3
-7.951457e-01	 5.198493e-01	 0
-7.951457e-01	 5.198493e-01	 1.500000e+00
-7.951457e-01	 5.198493e-01	 2.250000e+00
-7.951457e-01	 5.198493e-01	 3
-7.071068e-01	 -7.071068e-01	 0
-7.071068e-01	 -7.071068e-01	 3.750000e-01
-7.071068e-01	 -7.071068e-01	 7.500000e-01
-7.071068e-01	 -7.071068e-01	 1.125000e+00
-7.071068e-01	 -7.071068e-01	 1.500000e+00
-7.071068e-01	 -7.071068e-01	 1.875000e+00
-7.071068e-01	 -7.071068e-01	 2.250000e+00
-7.071068e-01	 -7.071068e-01	 2.625000e+00
-7.071068e-01	 -7.071068e-01	 3.000000e+00
-7.071068e-01	 7.071068e-01	 0
-7.071068e-01	 7.071068e-01	 3.750000e-01
-7.071068e-01	 7.071068e-01	 7.500000e-01
-7.071068e-01	 7.071068e-01	 1.125000e+00
-7.071068e-01	 7.071068e-01	 1.500000e+00
-7.071068e-01	 7.071068e-01	 1.875000e+00
-7.071068e-01	 7.071068e-01	 2.250000e+00
-7.071068e-01	 7.071068e-01	 2.625000e+00
-7.071068e-01	 7.071068e-01	 3.000000e+00
-6.982679e-01	 -6.982679e-01	 7.500000e-01
-6.982679e-01	 6.982679e-01	 7.500000e-01
-6.982679e-01	 -6.982679e-01	 0
-6.982679e-01	 -6.982679e-01	 2.250000e+00
-6.982679e-01	 -6.982679e-01	 3.000000e+00
-6.982679e-01	 6.982679e-01	 0
-6.982679e-01	 6.982679e-01	 2.250000e+00
-6.982679e-01	 6.982679e-01	 3.000000e+00
-6.982679e-01	 -6.982679e-01	 1.500000e+00
-6.982679e-01	 6.982679e-01	 1.500000e+00
-6.894291e-01	 -6.894291e-01	 3.750000e-01
-6.894291e-01	 -6.894291e-01	 2.625000e+00
-6.894291e-01	 -6.894291e-01	 0
-6.894291e-01	 -6.894291e-01	 1.500000e+00
-6.894291e-01	 -6.894291e-01	 2.250000e+00
-6.894291e-01	 -6.894291e-01	 3.000000e+00
-6.894291e-01	 6.894291e-01	 3.750000e-01
-6.894291e-01	 6.894291e-01	 2.625000e+00
-6.894291e-01	 -6.894291e-01	 1.875000e+00
-6.894291e-01	 6.894291e-01	 1.875000e+00
-6.894291e-01	 -6.894291e-01	 7.500000e-01
-6.894291e-01	 -6.894291e-01	 1.125000e+00
-6.894291e-01	 6.894291e-01	 0
-6.894291e-01	 6.894291e-01	 1.500000e+00
-6.894291e-01	 6.894291e-01	 2.250000e+00
-6.894291e-01	 6.894291e-01	 3.000000e+00
-6.894291e-01	 6.894291e-01	 7.500000e-01
-6.894291e-01	 6.894291e-01	 1.125000e+00
-6.805903e-01	 6.805903e-01	 7.500000e-01
-6.805903e-01	 -6.805903e-01	 7.500000e-01
-6.805903e-01	 -6.805903e-01	 0
-6.805903e-01	 -6.805903e-01	 1.500000e+00
-6.805903e-01	 -6.805903e-01	 3.000000e+00
-6.805903e-01	 6.805903e-01	 0
-6.805903e-01	 6.805903e-01	 1.500000e+00
-6.805903e-01	 6.805903e-01	 3.000000e+00
-6.805903e-01	 6.805903e-01	 2.250000e+00
-6.805903e-01	 -6.805903e-01	 2.250000e+00
-6.717514e-01	 -6.717514e-01	 2.625000e+00
-6.717514e-01	 6.717514e-01	 2.625000e+00
-6.717514e-01	 -6.717514e-01	 0
-6.717514e-01	 -6.717514e-01	 3.750000e-01
-6.717514e-01	 -6.717514e-01	 7.500000e-01
-6.717514e-01	 -6.717514e-01	 1.125000e+00
-6.717514e-01	 -6.717514e-01	 1.875000e+00
-6.717514e-01	 -6.717514e-01	 3.000000e+00
-6.717514e-01	 -6.717514e-01	 2.250000e+00
-6.717514e-01	 6.717514e-01	 1.500000e+00
-6.717514e-01	 6.717514e-01	 0
-6.717514e-01	 6.717514e-01	 3.750000e-01
-6.717514e-01	 6.717514e-01	 7.500000e-01
-6.717514e-01	 6.717514e-01	 1.125000e+00
-6.717514e-01	 6.717514e-01	 1.875000e+00
-6.717514e-01	 6.717514e-01	 3.000000e+00
-6.717514e-01	 -6.717514e-01	 1.500000e+00
-6.717514e-01	 6.717514e-01	 2.250000e+00
-5.472098e-01	 -8.369955e-01	 0
-5.472098e-01	 -8.369955e-01	 7.500000e-01
-5.472098e-01	 -8.369955e-01	 1.500000e+00
-5.472098e-01	 -8.369955e-01	 2.250000e+00
-5.472098e-01	 -8.369955e-01	 3
-5.472098e-01	 8.369955e-01	 0
-5.472098e-01	 8.369955e-01	 7.500000e-01
-5.472098e-01	 8.369955e-01	 1.500000e+00
-5.472098e-01	 8.369955e-01	 2.250000e+00
-5.472098e-01	 8.369955e-01	 3
-5.335295e-01	 -8.160706e-01	 1.500000e+00
-5.335295e-01	 -8.160706e-01	 2.250000e+00
-5.335295e-01	 8.160706e-01	 0
-5.335295e-01	 8.160706e-01	 3.000000e+00
[...]
POINT_DATA 832
VECTORS displacement float
0	 0	 3.986309e-14
1.114450e-13	 -9.347280e-08	 3.626918e-14
2.021792e-13	 -1.345728e-07	 2.755587e-14
2.632615e-13	 -9.347283e-08	 1.421421e-14
2.782627e-13	 -6.030113e-14	 -8.720183e-16
2.550499e-13	 9.347272e-08	 -1.531316e-14
1.913040e-13	 1.345727e-07	 -2.747265e-14
1.032011e-13	 9.347275e-08	 -3.499723e-14
0	 0	 -3.793974e-14
0	 0	 3.587729e-14
2.788116e-13	 -6.679218e-14	 -6.964936e-16
0	 0	 -3.430714e-14
1.916724e-13	 1.417734e-07	 -2.477721e-14
2.025868e-13	 -1.417735e-07	 2.486149e-14
-9.754461e-08	 -1.433477e-07	 1.637762e-14
0	 0	 -2.006286e-08
1.653138e-13	 -6.627790e-14	 2.006288e-08
0	 0	 -2.006290e-08
-9.754450e-08	 1.433476e-07	 -3.313615e-14
0	 0	 2.006293e-08
3.317592e-13	 -7.320979e-14	 -2.006288e-08
0	 0	 2.006283e-08
9.754497e-08	 -1.433477e-07	 3.320090e-14
9.754485e-08	 1.433476e-07	 -1.627511e-14
2.028672e-13	 -1.489643e-07	 2.217588e-14
2.640142e-13	 -1.042442e-07	 1.166896e-14
0	 0	 3.190445e-14
1.117678e-13	 -1.042442e-07	 2.948715e-14
2.557653e-13	 1.042441e-07	 -1.239280e-14
1.034865e-13	 1.042442e-07	 -2.859035e-14
0	 0	 -3.068632e-14
2.791871e-13	 -7.326029e-14	 -5.215543e-16
1.919228e-13	 1.489642e-07	 -2.209056e-14
2.794701e-13	 -7.966668e-14	 -3.462605e-16
1.921087e-13	 1.560994e-07	 -1.939943e-14
0	 0	 2.792492e-14
2.030813e-13	 -1.560995e-07	 1.948579e-14
0	 0	 -2.705950e-14
0	 0	 -1.228585e-08
0	 0	 -1.228589e-08
1.687909e-13	 -8.377054e-14	 1.228587e-08
0	 0	 1.228591e-08
0	 0	 1.228584e-08
3.319198e-13	 -7.487428e-14	 -1.228587e-08
9.578024e-08	 -1.554555e-07	 2.667799e-14
-9.577988e-08	 -1.554555e-07	 1.348669e-14
9.578012e-08	 1.554554e-07	 -1.338309e-14
-9.577977e-08	 1.554554e-07	 -2.661102e-14
0	 0	 2.392847e-14
1.118550e-13	 -1.150140e-07	 2.268788e-14
2.642150e-13	 -1.150140e-07	 9.117688e-15
2.795541e-13	 -8.611518e-14	 -1.698577e-16
2.559528e-13	 1.150139e-07	 -9.464848e-15
1.921590e-13	 1.632999e-07	 -1.669709e-14
1.035604e-13	 1.150139e-07	 -2.216779e-14
0	 0	 -2.341801e-14
2.031497e-13	 -1.633001e-07	 1.678451e-14
1.720192e-13	 -1.014476e-13	 4.480439e-09
0	 0	 -4.480424e-09
0	 0	 -4.480454e-09
-9.375724e-08	 1.676443e-07	 -2.008612e-14
0	 0	 4.480468e-09
3.313173e-13	 -7.640168e-14	 -4.480439e-09
0	 0	 4.480411e-09
-9.375734e-08	 -1.676444e-07	 1.059738e-14
9.375759e-08	 1.676443e-07	 -1.049267e-14
9.375771e-08	 -1.676444e-07	 2.015533e-14
-1.326730e-07	 -1.259002e-07	 2.418694e-08
0	 0	 -3.765753e-08
-1.739667e-07	 -1.744504e-07	 7.702626e-16
1.941933e-14	 -1.071487e-13	 3.765753e-08
1.326731e-07	 1.259000e-07	 2.418694e-08
1.739667e-07	 1.744503e-07	 -6.500677e-16
1.326730e-07	 1.259001e-07	 -2.418694e-08
0	 0	 -3.765753e-08
-1.326730e-07	 -1.259001e-07	 -2.418694e-08
1.326732e-07	 -1.259001e-07	 2.418698e-08
-1.739665e-07	 1.744503e-07	 -3.007680e-14
-1.326729e-07	 1.259001e-07	 2.418690e-08
0	 0	 3.765757e-08
1.739669e-07	 -1.744504e-07	 3.012100e-14
2.994338e-13	 -7.206295e-14	 -3.765753e-08
-1.326728e-07	 1.259000e-07	 -2.418695e-08
0	 0	 3.765748e-08
1.326733e-07	 -1.259002e-07	 -2.418692e-08
1.728864e-07	 -1.792449e-07	 2.716232e-14
0	 0	 -3.035227e-08
-1.728862e-07	 -1.792449e-07	 9.751898e-16
1.728862e-07	 1.792448e-07	 -8.549712e-16
0	 0	 -3.035227e-08
0	 0	 3.035231e-08
-1.728860e-07	 1.792448e-07	 -2.711694e-14
0	 0	 3.035223e-08
2.314879e-14	 -1.168474e-13	 3.035227e-08
3.016320e-13	 -6.805721e-14	 -3.035227e-08
-1.308292e-07	 -1.328843e-07	 1.647668e-08
1.308292e-07	 1.328841e-07	 -1.647668e-08
0	 0	 -2.306055e-08
-1.308292e-07	 -1.328842e-07	 -1.647667e-08
2.690938e-14	 -1.264974e-13	 2.306056e-08
0	 0	 -2.306056e-08
-1.308291e-07	 1.328842e-07	 1.647664e-08
1.308295e-07	 -1.328843e-07	 -1.647666e-08
0	 0	 2.306059e-08
1.308293e-07	 -1.328842e-07	 1.647671e-08
0	 0	 2.306052e-08
-1.716651e-07	 -1.839930e-07	 1.177224e-15
1.308292e-07	 1.328841e-07	 1.647667e-08
-1.308289e-07	 1.328841e-07	 -1.647669e-08
3.036731e-13	 -6.400776e-14	 -2.306056e-08
1.716651e-07	 1.839928e-07	 -1.056993e-15
1.716653e-07	 -1.839929e-07	 2.421131e-14
-1.716649e-07	 1.839928e-07	 -2.416475e-14
3.056305e-13	 -5.997824e-14	 -1.575787e-08
3.064923e-14	 -1.360539e-13	 1.575787e-08
0	 0	 -1.575787e-08
0	 0	 -1.575787e-08
0	 0	 1.575790e-08
0	 0	 1.575784e-08
1.704542e-07	 1.887011e-07	 -1.257982e-15
-1.704541e-07	 -1.887013e-07	 1.378230e-15
-1.704539e-07	 1.887011e-07	 -2.120807e-14
1.704544e-07	 -1.887012e-07	 2.125582e-14
-1.286327e-07	 -1.397329e-07	 8.734923e-09
1.286328e-07	 1.397327e-07	 8.734922e-09
1.286328e-07	 1.397327e-07	 -8.734924e-09
1.690787e-07	 1.933857e-07	 -1.461246e-15
1.286331e-07	 -1.397328e-07	 -8.734913e-09
0	 0	 -8.412861e-09
0	 0	 -8.412865e-09
-1.286328e-07	 -1.397328e-07	 -8.734920e-09
-1.690786e-07	 -1.933859e-07	 1.581521e-15
1.286329e-07	 -1.397328e-07	 8.734947e-09
1.690789e-07	 -1.933859e-07	 1.828911e-14
-1.690785e-07	 1.933858e-07	 -1.824015e-14
-1.286327e-07	 1.397328e-07	 8.734898e-09
0	 0	 8.412889e-09
-1.286325e-07	 1.397327e-07	 -8.734933e-09
0	 0	 8.412837e-09
3.446235e-14	 -1.456474e-13	 8.412863e-09
3.074268e-13	 -5.584735e-14	 -8.412863e-09
0	 0	 -5.074134e-08
-2.258500e-07	 -2.105066e-07	 -1.434137e-14
-1.008993e-13	 -1.748577e-13	 5.074132e-08
2.258499e-07	 2.105064e-07	 1.447617e-14
0	 0	 -5.074130e-08
0	 0	 5.074134e-08
2.258501e-07	 -2.105065e-07	 1.985770e-14
2.092937e-13	 -3.122674e-14	 -5.074132e-08
-2.258498e-07	 2.105065e-07	 -1.983480e-14
0	 0	 5.074129e-08
-2.241796e-07	 -2.152133e-07	 -1.089814e-14
2.241797e-07	 -2.152132e-07	 1.615917e-14
-9.390051e-14	 -1.858702e-13	 3.147527e-08
2.241794e-07	 2.152131e-07	 1.103198e-14
2.179315e-13	 -1.848169e-14	 -3.147527e-08
-2.241793e-07	 2.152132e-07	 -1.613439e-14
0	 0	 -3.147529e-08
0	 0	 -3.147526e-08
0	 0	 3.147530e-08
0	 0	 3.147525e-08
-2.220739e-07	 -2.196930e-07	 -7.455947e-15
2.220740e-07	 -2.196929e-07	 1.246105e-14
0	 0	 -1.214969e-08
-8.641429e-14	 -1.966716e-13	 1.214968e-08
2.220737e-07	 2.196927e-07	 7.588845e-15
0	 0	 -1.214967e-08
0	 0	 1.214970e-08
2.263197e-13	 -5.440579e-15	 -1.214968e-08
-2.220736e-07	 2.196929e-07	 -1.243434e-14
0	 0	 1.214966e-08
0	 0	 -5.429377e-08
-1.721983e-07	 -1.721984e-07	 -3.495135e-08
-2.293743e-07	 -2.293744e-07	 -2.344864e-14
-1.721984e-07	 -1.721985e-07	 3.495131e-08
-1.517650e-13	 -2.252293e-13	 5.429374e-08
1.721981e-07	 1.721981e-07	 3.495133e-08
2.293741e-07	 2.293741e-07	 2.359532e-14
1.721982e-07	 1.721982e-07	 -3.495129e-08
0	 0	 -5.429370e-08
0	 0	 5.429374e-08
1.721983e-07	 -1.721983e-07	 3.495132e-08
2.293743e-07	 -2.293742e-07	 3.758215e-15
1.721984e-07	 -1.721982e-07	 -3.495132e-08
9.247395e-14	 6.066652e-14	 -5.429373e-08
-1.721982e-07	 1.721983e-07	 -3.495132e-08
-2.293741e-07	 2.293742e-07	 -3.757275e-15
-1.721982e-07	 1.721983e-07	 3.495132e-08
0	 0	 5.429373e-08
-2.301425e-07	 -2.301425e-07	 -2.086772e-14
2.301424e-07	 -2.301423e-07	 3.538949e-15
0	 0	 -4.382711e-08
2.301422e-07	 2.301422e-07	 2.101343e-14
0	 0	 -4.382705e-08
0	 0	 4.382708e-08
-2.301423e-07	 2.301424e-07	 -3.537275e-15
0	 0	 4.382707e-08
-1.505901e-13	 -2.271900e-13	 4.382708e-08
9.964767e-14	 6.780183e-14	 -4.382708e-08
-1.730640e-07	 -1.730641e-07	 -2.384213e-08
1.730639e-07	 1.730639e-07	 -2.384208e-08
0	 0	 -3.337624e-08
-1.492967e-13	 -2.290293e-13	 3.337622e-08
2.307718e-07	 2.307718e-07	 1.844005e-14
0	 0	 -3.337619e-08
1.730640e-07	 -1.730640e-07	 2.384211e-08
-1.730639e-07	 1.730640e-07	 2.384210e-08
1.730638e-07	 1.730638e-07	 2.384212e-08
-1.730639e-07	 1.730641e-07	 -2.384211e-08
-2.307721e-07	 -2.307721e-07	 -1.829529e-14
-1.730641e-07	 -1.730642e-07	 2.384210e-08
0	 0	 3.337622e-08
1.068028e-13	 7.491563e-14	 -3.337622e-08
-2.307719e-07	 2.307720e-07	 -3.316915e-15
0	 0	 3.337621e-08
2.307720e-07	 -2.307719e-07	 3.319317e-15
1.730641e-07	 -1.730639e-07	 -2.384210e-08
2.313913e-07	 -2.313912e-07	 3.099496e-15
-2.313913e-07	 -2.313914e-07	 -1.571990e-14
0	 0	 -2.290731e-08
-1.479648e-13	 -2.308100e-13	 2.290729e-08
0	 0	 -2.290727e-08
0	 0	 2.290729e-08
1.138940e-13	 8.196889e-14	 -2.290729e-08
0	 0	 2.290728e-08
-2.313911e-07	 2.313913e-07	 -3.096356e-15
2.313911e-07	 2.313911e-07	 1.586369e-14
1.735689e-07	 1.735688e-07	 -1.268238e-08
-1.735689e-07	 1.735689e-07	 1.268240e-08
0	 0	 -1.237988e-08
-1.735690e-07	 -1.735690e-07	 -1.268242e-08
-2.318621e-07	 -2.318622e-07	 -1.313332e-14
-1.735690e-07	 -1.735691e-07	 1.268239e-08
1.735688e-07	 1.735687e-07	 1.268241e-08
0	 0	 -1.237984e-08
2.318619e-07	 2.318618e-07	 1.327616e-14
1.210239e-13	 8.905581e-14	 -1.237986e-08
0	 0	 1.237986e-08
1.735690e-07	 -1.735689e-07	 1.268240e-08
2.318621e-07	 -2.318619e-07	 2.879527e-15
1.735690e-07	 -1.735688e-07	 -1.268240e-08
-1.735688e-07	 1.735690e-07	 -1.268240e-08
0	 0	 1.237985e-08
-1.464865e-13	 -2.324574e-13	 1.237986e-08
-2.318619e-07	 2.318621e-07	 -2.875645e-15
0	 0	 -5.074135e-08
-2.105066e-07	 -2.258501e-07	 -2.548625e-14
-1.437931e-13	 -2.272858e-13	 5.074132e-08
2.105064e-07	 2.258498e-07	 2.564117e-14
0	 0	 -5.074128e-08
0	 0	 5.074130e-08
2.105065e-07	 -2.258498e-07	 -1.262237e-14
1.644750e-15	 1.767374e-13	 -5.074132e-08
-2.105065e-07	 2.258501e-07	 1.260399e-14
0	 0	 5.074133e-08
-1.486316e-13	 -2.245015e-13	 3.147527e-08
2.152131e-07	 2.241794e-07	 2.048029e-14
0	 0	 3.147526e-08
0	 0	 3.147529e-08
1.422061e-14	 1.851443e-13	 -3.147527e-08
-2.152132e-07	 2.241796e-07	 9.789328e-15
-2.152133e-07	 -2.241797e-07	 -2.032784e-14
0	 0	 -3.147530e-08
0	 0	 -3.147524e-08
2.152132e-07	 -2.241794e-07	 -9.806816e-15
2.196929e-07	 -2.220737e-07	 -6.993328e-15
-2.196930e-07	 -2.220740e-07	 -1.516966e-14
0	 0	 -1.214970e-08
-1.531578e-13	 -2.211613e-13	 1.214968e-08
2.196928e-07	 2.220737e-07	 1.531962e-14
0	 0	 -1.214966e-08
0	 0	 1.214967e-08
2.709097e-14	 1.932965e-13	 -1.214968e-08
-2.196929e-07	 2.220739e-07	 6.976733e-15
0	 0	 1.214969e-08
-1.259002e-07	 -1.326732e-07	 2.418693e-08
1.259001e-07	 -1.326728e-07	 -2.418695e-08
0	 0	 -3.765756e-08
-1.744504e-07	 -1.739668e-07	 -1.918766e-14
-9.918658e-14	 -1.547075e-13	 3.765753e-08
1.259000e-07	 1.326729e-07	 2.418695e-08
0	 0	 -3.765750e-08
0	 0	 3.765749e-08
1.744503e-07	 -1.739665e-07	 -2.381798e-14
-3.789206e-14	 2.645994e-13	 -3.765753e-08
-1.259001e-07	 1.326733e-07	 -2.418693e-08
-1.744504e-07	 1.739669e-07	 2.378506e-14
-1.259001e-07	 1.326731e-07	 2.418697e-08
0	 0	 3.765756e-08
-1.259001e-07	 -1.326731e-07	 -2.418696e-08
1.744503e-07	 1.739666e-07	 1.934624e-14
1.259001e-07	 1.326730e-07	 -2.418691e-08
1.259001e-07	 -1.326729e-07	 2.418691e-08
-1.063369e-13	 -1.522630e-13	 3.035227e-08
-3.402076e-14	 2.666679e-13	 -3.035227e-08
-1.792449e-07	 -1.728863e-07	 -1.743685e-14
0	 0	 -3.035230e-08
1.792448e-07	 1.728861e-07	 1.759391e-14
0	 0	 -3.035225e-08
0	 0	 3.035224e-08
1.792448e-07	 -1.728860e-07	 -2.129607e-14
-1.792449e-07	 1.728864e-07	 2.126329e-14
0	 0	 3.035230e-08
1.839928e-07	 1.716650e-07	 1.584632e-14
-1.839929e-07	 1.716653e-07	 1.874893e-14
1.328842e-07	 -1.308289e-07	 -1.647669e-08
-1.328842e-07	 1.308293e-07	 1.647670e-08
0	 0	 -2.306058e-08
-1.328842e-07	 -1.308293e-07	 -1.647670e-08
0	 0	 -2.306054e-08
-1.134222e-13	 -1.497383e-13	 2.306056e-08
0	 0	 2.306053e-08
1.328842e-07	 -1.308291e-07	 1.647665e-08
-3.010204e-14	 2.685931e-13	 -2.306056e-08
0	 0	 2.306058e-08
-1.328843e-07	 -1.308293e-07	 1.647667e-08
1.328841e-07	 1.308291e-07	 1.647669e-08
-1.839929e-07	 -1.716652e-07	 -1.569077e-14
1.839928e-07	 -1.716649e-07	 -1.878156e-14
-1.328842e-07	 1.308294e-07	 -1.647667e-08
1.328842e-07	 1.308291e-07	 -1.647666e-08
-1.204227e-13	 -1.472011e-13	 1.575787e-08
1.887011e-07	 1.704541e-07	 1.409761e-14
-1.887012e-07	 1.704544e-07	 1.623053e-14
0	 0	 1.575785e-08
0	 0	 1.575789e-08
-2.620211e-14	 2.704413e-13	 -1.575787e-08
0	 0	 -1.575789e-08
0	 0	 -1.575785e-08
-1.887013e-07	 -1.704543e-07	 -1.394356e-14
1.887012e-07	 -1.704540e-07	 -1.626302e-14
-1.397329e-07	 -1.286329e-07	 8.734917e-09
0	 0	 -8.412881e-09
1.397327e-07	 1.286327e-07	 8.734930e-09
0	 0	 -8.412846e-09
-1.274252e-13	 -1.445419e-13	 8.412864e-09
0	 0	 8.412844e-09
0	 0	 8.412883e-09
1.397328e-07	 -1.286325e-07	 -8.734931e-09
-1.397328e-07	 1.286330e-07	 -8.734915e-09
-1.397328e-07	 1.286329e-07	 8.734941e-09
-1.397328e-07	 -1.286328e-07	 -8.734940e-09
-1.933859e-07	 -1.690788e-07	 -1.218970e-14
1.933857e-07	 1.690786e-07	 1.234220e-14
1.397327e-07	 1.286327e-07	 -8.734907e-09
-2.221072e-14	 2.721384e-13	 -8.412863e-09
1.397328e-07	 -1.286327e-07	 8.734904e-09
-1.933858e-07	 1.690789e-07	 1.370207e-14
1.933858e-07	 -1.690785e-07	 -1.373441e-14
-1.433477e-07	 -9.754478e-08	 -9.166595e-15
1.433476e-07	 -9.754454e-08	 -2.852275e-14
0	 0	 -2.006290e-08
-6.529586e-14	 -4.029127e-14	 2.006288e-08
0	 0	 -2.006287e-08
0	 0	 2.006284e-08
-4.034440e-14	 2.980795e-13	 -2.006288e-08
0	 0	 2.006292e-08
1.433476e-07	 9.754473e-08	 9.321109e-15
-1.433477e-07	 9.754496e-08	 2.847838e-14
-1.554555e-07	 -9.578005e-08	 -8.153794e-15
0	 0	 -1.228589e-08
0	 0	 -1.228586e-08
1.554554e-07	 -9.577980e-08	 -2.275090e-14
-1.554555e-07	 9.578023e-08	 2.270649e-14
0	 0	 1.228584e-08
0	 0	 1.228591e-08
1.554554e-07	 9.578000e-08	 8.305676e-15
-4.119369e-14	 2.983131e-13	 -1.228587e-08
-8.049689e-14	 -3.759755e-14	 1.228588e-08
-4.192072e-14	 2.978736e-13	 -4.480440e-09
0	 0	 -4.480450e-09
-9.581911e-14	 -3.490072e-14	 4.480440e-09
0	 0	 -4.480430e-09
0	 0	 4.480416e-09
0	 0	 4.480464e-09
1.676443e-07	 9.375747e-08	 7.285860e-15
-1.676444e-07	 -9.375751e-08	 -7.136631e-15
1.676443e-07	 -9.375727e-08	 -1.697972e-14
-1.676444e-07	 9.375769e-08	 1.693527e-14
0	 0	 -1.604469e-15
-9.347280e-08	 1.468935e-14	 -8.348026e-16
-1.345728e-07	 3.254916e-14	 6.893092e-16
-9.347283e-08	 5.233863e-14	 2.060936e-15
-5.735692e-14	 6.845742e-14	 2.615571e-15
9.347272e-08	 7.608364e-14	 1.423938e-15
1.345727e-07	 6.421975e-14	 -5.430801e-16
9.347275e-08	 3.846975e-14	 -2.360286e-15
0	 0	 -3.339902e-15
0	 0	 -2.039435e-15
-6.444791e-14	 6.866409e-14	 2.124269e-15
0	 0	 -1.919996e-15
1.417734e-07	 6.442875e-14	 1.130116e-16
-1.417735e-07	 3.263210e-14	 3.205497e-17
-1.489643e-07	 3.266223e-14	 -6.191461e-16
-1.042442e-07	 5.250762e-14	 8.245108e-16
0	 0	 -2.468566e-15
-1.042442e-07	 1.473026e-14	 -1.906611e-15
1.042441e-07	 7.635143e-14	 1.541841e-15
1.042442e-07	 3.860973e-14	 -1.699128e-16
0	 0	 -5.112911e-16
-7.151222e-14	 6.876888e-14	 1.635656e-15
1.489642e-07	 6.454675e-14	 7.630647e-16
-7.850855e-14	 6.882845e-14	 1.146094e-15
1.560994e-07	 6.462977e-14	 1.415010e-15
0	 0	 -2.899417e-15
-1.560995e-07	 3.266345e-14	 -1.272237e-15
0	 0	 9.010431e-16
0	 0	 -3.333934e-15
-1.150140e-07	 1.469107e-14	 -2.980574e-15
-1.150140e-07	 5.242256e-14	 -4.159566e-16
-8.555218e-14	 6.876919e-14	 6.526286e-16
1.150139e-07	 7.628019e-14	 1.659334e-15
1.633000e-07	 6.460722e-14	 2.072329e-15
1.150139e-07	 3.858448e-14	 2.027080e-15
0	 0	 2.324868e-15
-1.633001e-07	 3.260245e-14	 -1.930721e-15
1.633000e-07	 1.695310e-13	 -1.539058e-14
0	 0	 -2.132057e-14
1.150139e-07	 8.998801e-14	 -2.021892e-14
1.150139e-07	 2.298159e-13	 -8.966501e-15
-5.095840e-14	 2.565942e-13	 -4.603590e-16
-1.150140e-07	 2.476329e-13	 8.098759e-15
-1.633000e-07	 1.933905e-13	 1.533578e-14
-1.150140e-07	 1.077999e-13	 2.097724e-14
0	 0	 2.213192e-14
0	 0	 -2.446369e-14
1.560994e-07	 1.694847e-13	 -1.787216e-14
0	 0	 2.600909e-14
-4.559925e-14	 2.565104e-13	 -8.275488e-16
-1.560995e-07	 1.933183e-13	 1.781753e-14
-4.027669e-14	 2.562551e-13	 -1.191718e-15
-1.489642e-07	 1.931073e-13	 2.028953e-14
0	 0	 -2.759605e-14
1.042442e-07	 8.991293e-14	 -2.586549e-14
-1.042442e-07	 2.474453e-13	 1.019006e-14
-1.042442e-07	 1.077212e-13	 2.746407e-14
0	 0	 2.986944e-14
1.489642e-07	 1.693344e-13	 -2.034401e-14
1.042441e-07	 2.296318e-13	 -1.189806e-14
1.417734e-07	 1.691265e-13	 -2.281183e-14
-1.417735e-07	 1.928337e-13	 2.275753e-14
0	 0	 -3.072341e-14
-3.489831e-14	 2.559148e-13	 -1.555185e-15
0	 0	 3.372342e-14
0	 0	 -3.385922e-14
9.347276e-08	 8.967360e-14	 -3.149895e-14
1.345727e-07	 1.688273e-13	 -2.528716e-14
9.347275e-08	 2.290038e-13	 -1.482192e-14
-2.949932e-14	 2.554241e-13	 -1.920873e-15
-9.347280e-08	 2.467464e-13	 1.227689e-14
-1.345727e-07	 1.924385e-13	 2.523303e-14
-9.347278e-08	 1.074109e-13	 3.393458e-14
0	 0	 3.759026e-14
-1.676444e-07	 9.375756e-08	 2.568239e-15
1.676443e-07	 -9.375736e-08	 -2.439428e-15
1.676443e-07	 9.375758e-08	 -1.114786e-14
-1.676444e-07	 -9.375734e-08	 1.108476e-14
0	 0	 4.480443e-09
0	 0	 4.480436e-09
0	 0	 -4.480455e-09
-6.410099e-14	 1.666240e-13	 4.480439e-09
0	 0	 -4.480423e-09
-8.105485e-14	 1.383038e-13	 -4.480439e-09
-4.923992e-14	 1.638845e-13	 1.228587e-08
-7.565509e-14	 1.397744e-13	 -1.228587e-08
-1.554555e-07	 -9.577988e-08	 1.401047e-14
0	 0	 1.228588e-08
0	 0	 1.228587e-08
-1.554555e-07	 9.578009e-08	 5.441565e-15
1.554554e-07	 -9.577990e-08	 -5.311111e-15
0	 0	 -1.228589e-08
0	 0	 -1.228585e-08
1.554554e-07	 9.578011e-08	 -1.407315e-14
1.433476e-07	 -9.754463e-08	 -8.186083e-15
-1.433477e-07	 -9.754461e-08	 1.693703e-14
0	 0	 2.006289e-08
-7.018094e-14	 1.406680e-13	 -2.006288e-08
0	 0	 2.006287e-08
0	 0	 -2.006290e-08
-3.453680e-14	 1.609242e-13	 2.006288e-08
0	 0	 -2.006285e-08
-1.433477e-07	 9.754483e-08	 8.318193e-15
1.433476e-07	 9.754484e-08	 -1.699928e-14
-1.933859e-07	 1.690788e-07	 4.578874e-15
1.933858e-07	 -1.690786e-07	 -4.468093e-15
-1.397328e-07	 1.286328e-07	 8.734929e-09
-7.408479e-14	 1.500057e-13	 -8.412863e-09
1.397328e-07	 1.286328e-07	 -8.734928e-09
1.933858e-07	 1.690787e-07	 -4.192850e-15
-1.933859e-07	 -1.690786e-07	 4.122857e-15
-1.397328e-07	 -1.286328e-07	 -8.734917e-09
-1.397329e-07	 1.286329e-07	 -8.734920e-09
1.397327e-07	 -1.286326e-07	 -8.734925e-09
1.397328e-07	 -1.286327e-07	 8.734917e-09
0	 0	 8.412870e-09
0	 0	 8.412857e-09
-1.016996e-13	 5.055635e-14	 8.412863e-09
0	 0	 -8.412869e-09
-1.397329e-07	 -1.286327e-07	 8.734925e-09
0	 0	 -8.412857e-09
1.397327e-07	 1.286328e-07	 8.734920e-09
-1.887012e-07	 1.704543e-07	 6.189455e-15
1.887011e-07	 1.704542e-07	 -4.290590e-15
0	 0	 -1.575788e-08
0	 0	 -1.575787e-08
-7.538975e-14	 1.494626e-13	 -1.575787e-08
0	 0	 1.575788e-08
0	 0	 1.575786e-08
1.887011e-07	 -1.704541e-07	 -6.078186e-15
-1.887012e-07	 -1.704541e-07	 4.220826e-15
-9.357613e-14	 4.730393e-14	 1.575787e-08
-1.328842e-07	 -1.308292e-07	 -1.647667e-08
-1.839929e-07	 1.716652e-07	 7.791762e-15
1.328841e-07	 -1.308290e-07	 -1.647668e-08
1.839928e-07	 1.716651e-07	 -4.389657e-15
-1.328843e-07	 -1.308291e-07	 1.647668e-08
1.328841e-07	 1.308292e-07	 1.647667e-08
0	 0	 2.306057e-08
-1.328842e-07	 1.308292e-07	 1.647669e-08
-7.661808e-14	 1.487797e-13	 -2.306056e-08
0	 0	 2.306055e-08
-8.548534e-14	 4.410745e-14	 2.306056e-08
0	 0	 -2.306056e-08
1.328842e-07	 1.308292e-07	 -1.647668e-08
0	 0	 -2.306055e-08
-1.328843e-07	 1.308293e-07	 -1.647667e-08
1.328842e-07	 -1.308291e-07	 1.647667e-08
1.839928e-07	 -1.716650e-07	 -7.680015e-15
-1.839929e-07	 -1.716651e-07	 4.320122e-15
0	 0	 3.035229e-08
-1.792449e-07	 1.728863e-07	 9.391435e-15
1.792448e-07	 -1.728861e-07	 -9.279210e-15
0	 0	 3.035226e-08
0	 0	 -3.035228e-08
-1.792449e-07	 -1.728862e-07	 4.418330e-15
0	 0	 -3.035227e-08
1.792448e-07	 1.728862e-07	 -4.487626e-15
-7.785464e-14	 1.480409e-13	 -3.035227e-08
-7.731379e-14	 4.088883e-14	 3.035227e-08
-1.259001e-07	 1.326731e-07	 2.418695e-08
1.259001e-07	 1.326731e-07	 -2.418694e-08
-1.744504e-07	 -1.739667e-07	 4.514216e-15
-1.259001e-07	 -1.326730e-07	 -2.418693e-08
0	 0	 3.765754e-08
-1.744504e-07	 1.739668e-07	 1.099836e-14
-7.905257e-14	 1.471718e-13	 -3.765753e-08
1.259000e-07	 -1.326729e-07	 -2.418694e-08
1.744503e-07	 -1.739666e-07	 -1.088565e-14
1.259001e-07	 -1.326730e-07	 2.418692e-08
0	 0	 3.765751e-08
0	 0	 -3.765753e-08
1.744503e-07	 1.739667e-07	 -4.583271e-15
-6.910479e-14	 3.769223e-14	 3.765753e-08
-1.259002e-07	 -1.326730e-07	 2.418694e-08
0	 0	 -3.765752e-08
-1.259002e-07	 1.326732e-07	 -2.418693e-08
1.259000e-07	 1.326731e-07	 2.418693e-08
0	 0	 1.214968e-08
-4.647051e-14	 1.122905e-13	 -1.214968e-08
2.196929e-07	 -2.220737e-07	 -4.384811e-15
0	 0	 1.214967e-08
0	 0	 -1.214967e-08
-1.458869e-13	 -5.274292e-14	 1.214968e-08