# vtk DataFile Version 3.0
Unstructured Grid Example
ASCII
DATASET UNSTRUCTURED_GRID
POINTS 1641 float
-9.500000e-01	 0	 0
-9.500000e-01	 0	 3.750000e-01
-9.500000e-01	 0	 1.125000e+00
-9.500000e-01	 0	 1.500000e+00
-9.500000e-01	 0	 1.875000e+00
-9.500000e-01	 0	 2.250000e+00
-9.500000e-01	 0	 2.625000e+00
-9.500000e-01	 0	 3
-9.500000e-01	 0	 7.500000e-01
-9.341401e-01	 -1.728649e-01	 1.500000e+00
-9.341401e-01	 -1.728649e-01	 0
-9.341401e-01	 -1.728649e-01	 3.000000e+00
-9.341401e-01	 1.728649e-01	 2.250000e+00
-9.341401e-01	 1.728649e-01	 0
-9.341401e-01	 1.728649e-01	 1.500000e+00
-9.341401e-01	 1.728649e-01	 3.000000e+00
-9.341401e-01	 -1.728649e-01	 7.500000e-01
-9.341401e-01	 -1.728649e-01	 2.250000e+00
-9.341401e-01	 1.728649e-01	 7.500000e-01
-8.832989e-01	 -3.496900e-01	 1.125000e+00
-8.832989e-01	 -3.496900e-01	 1.875000e+00
-8.832989e-01	 -3.496900e-01	 2.625000e+00
-8.832989e-01	 -3.496900e-01	 2.250000e+00
-8.832989e-01	 3.496900e-01	 1.125000e+00
-8.832989e-01	 -3.496900e-01	 0
-8.832989e-01	 -3.496900e-01	 3.000000e+00
-8.832989e-01	 -3.496900e-01	 3.750000e-01
-8.832989e-01	 -3.496900e-01	 7.500000e-01
-8.832989e-01	 3.496900e-01	 3.750000e-01
-8.832989e-01	 3.496900e-01	 7.500000e-01
-8.832989e-01	 3.496900e-01	 2.250000e+00
-8.832989e-01	 3.496900e-01	 2.625000e+00
-8.832989e-01	 3.496900e-01	 0
-8.832989e-01	 3.496900e-01	 1.875000e+00
-8.832989e-01	 3.496900e-01	 3.000000e+00
-8.832989e-01	 -3.496900e-01	 1.500000e+00
-8.832989e-01	 3.496900e-01	 1.500000e+00
-8.787500e-01	 0	 2.250000e+00
-8.787500e-01	 0	 0
-8.787500e-01	 0	 1.500000e+00
-8.787500e-01	 0	 3
-8.787500e-01	 0	 7.500000e-01
-8.149622e-01	 -3.223238e-01	 7.500000e-01
-8.149622e-01	 3.223238e-01	 7.500000e-01
-8.149622e-01	 -3.223238e-01	 2.250000e+00
-8.149622e-01	 3.223238e-01	 2.250000e+00
-8.149622e-01	 -3.223238e-01	 0
-8.149622e-01	 -3.223238e-01	 1.500000e+00
-8.149622e-01	 -3.223238e-01	 3
-8.149622e-01	 3.223238e-01	 1.500000e+00
-8.149622e-01	 3.223238e-01	 0
-8.149622e-01	 3.223238e-01	 3
-8.075000e-01	 0	 7.500000e-01
-8.075000e-01	 0	 2.250000e+00
-8.075000e-01	 0	 3.750000e-01
-8.075000e-01	 0	 1.875000e+00
-8.075000e-01	 0	 2.625000e+00
-8.075000e-01	 0	 0
-8.075000e-01	 0	 1.125000e+00
-8.075000e-01	 0	 1.500000e+00
-8.075000e-01	 0	 3
-7.951457e-01	 -5.198493e-01	 7.500000e-01
-7.951457e-01	 5.198493e-01	 7.500000e-01
-7.951457e-01	 -5.198493e-01	 0
-7.951457e-01	 -5.198493e-01	 1.500000e+00
-7.951457e-01	 -5.198493e-01	 2.250000e+00
-7.951457e-01	 -5.198493e-01	 3
-7.951457e-01	 5.198493e-01	 0
-7.951457e-01	 5.198493e-01	 1.500000e+00
-7.951457e-01	 5.198493e-01	 2.250000e+00
-7.951457e-01	 5.198493e-01	 3
-7.894916e-01	 -1.451644e-01	 7.500000e-01
-7.894916e-01	 1.451644e-01	 7.500000e-01
-7.894916e-01	 1.451644e-01	 0
-7.894916e-01	 1.451644e-01	 3
-7.894916e-01	 -1.451644e-01	 0
-7.894916e-01	 -1.451644e-01	 1.500000e+00
-7.894916e-01	 -1.451644e-01	 2.250000e+00
-7.894916e-01	 -1.451644e-01	 3
-7.894916e-01	 1.451644e-01	 1.500000e+00
-7.894916e-01	 1.451644e-01	 2.250000e+00
-7.430021e-01	 -2.929055e-01	 1.500000e+00
-7.430021e-01	 2.929055e-01	 1.500000e+00
-7.430021e-01	 -2.929055e-01	 2.250000e+00
-7.430021e-01	 -2.929055e-01	 0
-7.430021e-01	 -2.929055e-01	 3.000000e+00
-7.430021e-01	 2.929055e-01	 3.750000e-01
-7.430021e-01	 -2.929055e-01	 3.750000e-01
-7.430021e-01	 -2.929055e-01	 1.125000e+00
-7.430021e-01	 -2.929055e-01	 1.875000e+00
-7.430021e-01	 -2.929055e-01	 2.625000e+00
-7.430021e-01	 2.929055e-01	 1.125000e+00
-7.430021e-01	 2.929055e-01	 0
-7.430021e-01	 2.929055e-01	 1.875000e+00
-7.430021e-01	 2.929055e-01	 2.250000e+00
-7.430021e-01	 2.929055e-01	 2.625000e+00
-7.430021e-01	 2.929055e-01	 3.000000e+00
-7.430021e-01	 2.929055e-01	 7.500000e-01
-7.430021e-01	 -2.929055e-01	 7.500000e-01
-7.362500e-01	 0	 0
-7.362500e-01	 0	 7.500000e-01
-7.362500e-01	 0	 1.500000e+00
-7.362500e-01	 0	 2.250000e+00
-7.362500e-01	 0	 3
-6.717514e-01	 -6.717514e-01	 2.625000e+00
-6.717514e-01	 6.717514e-01	 2.625000e+00
-6.717514e-01	 -6.717514e-01	 0
-6.717514e-01	 -6.717514e-01	 3.750000e-01
-6.717514e-01	 -6.717514e-01	 7.500000e-01
-6.717514e-01	 -6.717514e-01	 1.125000e+00
-6.717514e-01	 -6.717514e-01	 1.875000e+00
-6.717514e-01	 -6.717514e-01	 3.000000e+00
-6.717514e-01	 -6.717514e-01	 2.250000e+00
-6.717514e-01	 6.717514e-01	 1.500000e+00
-6.717514e-01	 6.717514e-01	 0
-6.717514e-01	 6.717514e-01	 3.750000e-01
-6.717514e-01	 6.717514e-01	 7.500000e-01
-6.717514e-01	 6.717514e-01	 1.125000e+00
-6.717514e-01	 6.717514e-01	 1.875000e+00
-6.717514e-01	 6.717514e-01	 3.000000e+00
-6.717514e-01	 -6.717514e-01	 1.500000e+00
-6.717514e-01	 6.717514e-01	 2.250000e+00
-6.682985e-01	 -2.618048e-01	 0
-6.682985e-01	 -2.618048e-01	 1.500000e+00
-6.682985e-01	 -2.618048e-01	 3
-6.682985e-01	 -2.618048e-01	 7.500000e-01
-6.682985e-01	 -2.618048e-01	 2.250000e+00
-6.682985e-01	 2.618048e-01	 7.500000e-01
-6.682985e-01	 2.618048e-01	 2.250000e+00
-6.682985e-01	 2.618048e-01	 0
-6.682985e-01	 2.618048e-01	 1.500000e+00
-6.682985e-01	 2.618048e-01	 3
-6.665713e-01	 -4.348738e-01	 2.250000e+00
-6.665713e-01	 -4.348738e-01	 7.500000e-01
-6.665713e-01	 4.348738e-01	 7.500000e-01
-6.665713e-01	 4.348738e-01	 2.250000e+00
-6.665713e-01	 -4.348738e-01	 0
-6.665713e-01	 -4.348738e-01	 3
-6.665713e-01	 4.348738e-01	 0
-6.665713e-01	 4.348738e-01	 1.500000e+00
-6.665713e-01	 4.348738e-01	 3
-6.665713e-01	 -4.348738e-01	 1.500000e+00
-6.650000e-01	 0	 7.500000e-01
-6.650000e-01	 0	 0
-6.650000e-01	 0	 3.750000e-01
-6.650000e-01	 0	 1.125000e+00
-6.650000e-01	 0	 1.500000e+00
-6.650000e-01	 0	 1.875000e+00
-6.650000e-01	 0	 2.625000e+00
-6.650000e-01	 0	 3
-6.650000e-01	 0	 2.250000e+00
-6.383743e-01	 -1.144482e-01	 0
-6.383743e-01	 -1.144482e-01	 3.000000e+00
-6.383743e-01	 -1.144482e-01	 7.500000e-01
-6.383743e-01	 -1.144482e-01	 1.500000e+00
-6.383743e-01	 -1.144482e-01	 2.250000e+00
-6.383743e-01	 1.144482e-01	 7.500000e-01
-6.383743e-01	 1.144482e-01	 1.500000e+00
-6.383743e-01	 1.144482e-01	 0
-6.383743e-01	 1.144482e-01	 2.250000e+00
-6.383743e-01	 1.144482e-01	 3.000000e+00
-6.189903e-01	 -6.189903e-01	 0
-6.189903e-01	 -6.189903e-01	 1.500000e+00
-6.189903e-01	 -6.189903e-01	 3.000000e+00
-6.189903e-01	 6.189903e-01	 2.250000e+00
-6.189903e-01	 6.189903e-01	 0
-6.189903e-01	 6.189903e-01	 1.500000e+00
-6.189903e-01	 6.189903e-01	 3.000000e+00
-6.189903e-01	 -6.189903e-01	 2.250000e+00
-6.189903e-01	 -6.189903e-01	 7.500000e-01
-6.189903e-01	 6.189903e-01	 7.500000e-01
-5.937500e-01	 0	 0
-5.937500e-01	 0	 7.500000e-01
-5.937500e-01	 0	 1.500000e+00
-5.937500e-01	 0	 2.250000e+00
-5.937500e-01	 0	 3
-5.917666e-01	 2.294176e-01	 1.875000e+00
-5.917666e-01	 2.294176e-01	 2.250000e+00
-5.917666e-01	 -2.294176e-01	 2.250000e+00
-5.917666e-01	 -2.294176e-01	 0
-5.917666e-01	 -2.294176e-01	 2.625000e+00
-5.917666e-01	 -2.294176e-01	 3
-5.917666e-01	 -2.294176e-01	 1.500000e+00
-5.917666e-01	 -2.294176e-01	 1.875000e+00
-5.917666e-01	 2.294176e-01	 0
-5.917666e-01	 2.294176e-01	 2.625000e+00
-5.917666e-01	 2.294176e-01	 3
-5.917666e-01	 2.294176e-01	 1.500000e+00
-5.917666e-01	 -2.294176e-01	 3.750000e-01
-5.917666e-01	 -2.294176e-01	 7.500000e-01
-5.917666e-01	 -2.294176e-01	 1.125000e+00
-5.917666e-01	 2.294176e-01	 7.500000e-01
-5.917666e-01	 2.294176e-01	 1.125000e+00
-5.917666e-01	 2.294176e-01	 3.750000e-01
-5.620800e-01	 5.620800e-01	 1.125000e+00
-5.620800e-01	 -5.620800e-01	 1.125000e+00
-5.620800e-01	 -5.620800e-01	 3.750000e-01
-5.620800e-01	 -5.620800e-01	 7.500000e-01
-5.620800e-01	 -5.620800e-01	 1.875000e+00
-5.620800e-01	 -5.620800e-01	 2.625000e+00
-5.620800e-01	 5.620800e-01	 3.750000e-01
-5.620800e-01	 5.620800e-01	 7.500000e-01
-5.620800e-01	 5.620800e-01	 1.875000e+00
-5.620800e-01	 -5.620800e-01	 0
-5.620800e-01	 -5.620800e-01	 1.500000e+00
-5.620800e-01	 -5.620800e-01	 2.250000e+00
-5.620800e-01	 -5.620800e-01	 3
-5.620800e-01	 5.620800e-01	 0
-5.620800e-01	 5.620800e-01	 1.500000e+00
-5.620800e-01	 5.620800e-01	 2.250000e+00
-5.620800e-01	 5.620800e-01	 3
-5.620800e-01	 5.620800e-01	 2.625000e+00
-5.250231e-01	 -3.396892e-01	 7.500000e-01
-5.250231e-01	 3.396892e-01	 1.500000e+00
-5.250231e-01	 3.396892e-01	 2.250000e+00
-5.250231e-01	 3.396892e-01	 7.500000e-01
-5.250231e-01	 -3.396892e-01	 2.250000e+00
-5.250231e-01	 -3.396892e-01	 0
-5.250231e-01	 -3.396892e-01	 1.500000e+00
-5.250231e-01	 -3.396892e-01	 3.000000e+00
-5.250231e-01	 3.396892e-01	 0
-5.250231e-01	 3.396892e-01	 3.000000e+00
-5.225000e-01	 0	 1.500000e+00
-5.225000e-01	 0	 2.250000e+00
-5.225000e-01	 0	 0
-5.225000e-01	 0	 3.750000e-01
-5.225000e-01	 0	 7.500000e-01
-5.225000e-01	 0	 1.125000e+00
-5.225000e-01	 0	 1.875000e+00
-5.225000e-01	 0	 2.625000e+00
-5.225000e-01	 0	 3
-5.198493e-01	 7.951457e-01	 7.500000e-01
-5.198493e-01	 -7.951457e-01	 7.500000e-01
-5.198493e-01	 -7.951457e-01	 0
-5.198493e-01	 -7.951457e-01	 1.500000e+00
-5.198493e-01	 -7.951457e-01	 2.250000e+00
-5.198493e-01	 -7.951457e-01	 3
-5.198493e-01	 7.951457e-01	 0
-5.198493e-01	 7.951457e-01	 1.500000e+00
-5.198493e-01	 7.951457e-01	 2.250000e+00
-5.198493e-01	 7.951457e-01	 3
-5.143216e-01	 -1.961513e-01	 2.250000e+00
-5.143216e-01	 1.961513e-01	 7.500000e-01
-5.143216e-01	 1.961513e-01	 1.500000e+00
-5.143216e-01	 -1.961513e-01	 7.500000e-01
-5.143216e-01	 -1.961513e-01	 0
-5.143216e-01	 -1.961513e-01	 3.000000e+00
-5.143216e-01	 -1.961513e-01	 1.500000e+00
-5.143216e-01	 1.961513e-01	 2.250000e+00
-5.143216e-01	 1.961513e-01	 0
-5.143216e-01	 1.961513e-01	 3.000000e+00
-5.020120e-01	 -5.020120e-01	 7.500000e-01
-5.020120e-01	 -5.020120e-01	 1.500000e+00
-5.020120e-01	 5.020120e-01	 7.500000e-01
-5.020120e-01	 5.020120e-01	 1.500000e+00
-5.020120e-01	 -5.020120e-01	 0
-5.020120e-01	 -5.020120e-01	 2.250000e+00
-5.020120e-01	 -5.020120e-01	 3.000000e+00
-5.020120e-01	 5.020120e-01	 0
-5.020120e-01	 5.020120e-01	 2.250000e+00
-5.020120e-01	 5.020120e-01	 3.000000e+00
-4.847636e-01	 8.158725e-02	 7.500000e-01
-4.847636e-01	 -8.158725e-02	 7.500000e-01
[...]
POINT_DATA 1641
SCALARS pres_adim float 1
LOOKUP_TABLE default
1.529515e+01
4.913870e+01
1.834451e+02
1.991963e+02
1.854656e+02
1.278569e+02
4.834364e+01
1.234154e+01
1.257701e+02
-4.357235e+01
-1.155523e+02
-1.180090e+02
2.914165e+02
1.349970e+02
3.906689e+02
1.343944e+02
-7.454579e+01
-7.314920e+01
2.907280e+02
-2.837606e+02
-2.851416e+02
-2.295880e+02
-2.628609e+02
4.425334e+02
-2.151766e+02
-2.137999e+02
-2.299987e+02
-2.615551e+02
2.707302e+02
3.709818e+02
3.692355e+02
2.715626e+02
2.249203e+02
4.405417e+02
2.275030e+02
-2.894881e+02
4.590985e+02
1.244071e+02
1.357772e+01
1.948778e+02
1.064933e+01
1.223267e+02
-2.532354e+02
3.598316e+02
-2.544897e+02
3.581100e+02
-2.080229e+02
-2.804342e+02
-2.066713e+02
4.467602e+02
2.162196e+02
2.187556e+02
1.108768e+02
1.126911e+02
4.084281e+01
1.654462e+02
4.015481e+01
9.884208e+00
1.637067e+02
1.781356e+02
7.335206e+00
-3.654344e+02
3.264419e+02
-2.420749e+02
-4.463549e+02
-3.681877e+02
-2.382131e+02
2.343621e+02
3.806240e+02
3.240675e+02
2.373870e+02
-6.394348e+01
2.530692e+02
1.122784e+02
1.117171e+02
-1.020163e+02
-3.497484e+01
-6.267549e+01
-1.041587e+02
3.435757e+02
2.536838e+02
-2.486873e+02
4.001592e+02
-2.260213e+02
-1.846667e+02
-1.837098e+02
2.309214e+02
-1.975572e+02
-2.441764e+02
-2.451431e+02
-1.972752e+02
3.851035e+02
1.897657e+02
3.835656e+02
3.194609e+02
2.315749e+02
1.918213e+02
3.208462e+02
-2.251374e+02
3.929602e+00
9.494512e+01
1.559045e+02
9.651915e+01
1.775721e+00
-2.309443e+02
1.608521e+02
-1.839354e+02
-2.310638e+02
-3.362778e+02
-4.135444e+02
-4.138265e+02
-1.831430e+02
-3.366983e+02
1.535951e+02
1.624645e+02
1.612728e+02
1.579096e+02
1.544457e+02
1.553004e+02
1.616969e+02
-4.325618e+02
1.583599e+02
-1.502080e+02
-2.030378e+02
-1.496190e+02
-1.841272e+02
-1.846122e+02
2.640260e+02
2.630264e+02
1.498405e+02
3.336026e+02
1.513938e+02
-3.166663e+02
-3.145905e+02
2.811154e+02
2.791717e+02
-2.045110e+02
-2.014520e+02
1.992378e+02
3.293382e+02
2.017220e+02
-3.859331e+02
7.575053e+01
-1.714913e+00
2.243060e+01
1.162825e+02
1.278459e+02
1.174300e+02
2.198978e+01
-3.403301e+00
7.705369e+01
-6.820540e+01
-6.956883e+01
-3.794060e+01
-1.455229e+01
-3.697963e+01
1.607873e+02
2.269326e+02
5.881246e+01
1.613292e+02
5.834886e+01
-1.764129e+02
-4.210591e+02
-1.756340e+02
1.534838e+02
1.576525e+02
1.487112e+02
1.569070e+02
-3.265563e+02
-3.261674e+02
1.530456e+02
-6.939961e+00
5.622881e+01
9.902872e+01
5.723665e+01
-8.149628e+00
2.402679e+02
1.955024e+02
-1.355052e+02
-1.098693e+02
-1.179582e+02
-1.095863e+02
-1.485906e+02
-1.467434e+02
1.045072e+02
1.339233e+02
1.055174e+02
2.520984e+02
-1.180030e+02
-1.353615e+02
-1.465661e+02
1.960677e+02
2.408963e+02
1.336326e+02
1.318119e+02
-3.580116e+02
-1.952723e+02
-2.892124e+02
-3.582767e+02
-1.950868e+02
1.388165e+02
1.353699e+02
1.323329e+02
-1.531202e+02
-3.748664e+02
-2.895177e+02
-1.523767e+02
1.400466e+02
1.307814e+02
1.356235e+02
1.395843e+02
1.385413e+02
-1.853732e+02
1.985095e+02
1.651932e+02
1.660830e+02
-1.861485e+02
-1.115417e+02
-2.315782e+02
-1.101515e+02
1.113237e+02
1.126233e+02
7.236419e+01
3.977532e+01
-9.768930e+00
6.157587e+00
3.897977e+01
6.417796e+01
6.475048e+01
5.994975e+00
-1.061555e+01
-6.818188e+01
-1.842282e+02
-4.992401e+01
-2.684387e+02
-1.818122e+02
-5.333310e+01
3.093260e+01
-1.299574e+02
-6.530682e+01
2.721434e+01
-8.839589e+01
1.302377e+02
1.723093e+02
-8.849858e+01
-7.152428e+01
-7.151528e+01
-9.630853e+01
1.300921e+02
6.212072e+01
6.262141e+01
-2.349214e+02
-3.086878e+02
1.093897e+02
1.046001e+02
-1.175463e+02
-2.351510e+02
-1.168236e+02
1.142211e+02
1.094893e+02
1.140646e+02
6.947572e+01
-1.339831e+01
-3.297994e+01
1.858585e+00
-3.356591e+01
-1.282659e+01
1.327366e+01
1.065331e+02
6.991586e+01
1.300857e+01
4.802209e+01
2.481142e+01
-1.022753e+01
2.428274e+01
-1.069025e+01
-2.157940e+02
7.505881e+01
-7.791460e+01
-1.065354e+02
-7.725393e+01
-1.067846e+02
-2.272897e+02
7.504079e+01
8.318260e+01
8.185538e+01
8.322166e+01
-2.160386e+02
-1.701033e+02
7.845193e+01
8.192468e+01
7.382389e+01
7.843042e+01
-1.699235e+02
-5.443103e+01
-5.457339e+01
4.594492e+01
4.604462e+01
1.065973e+02
1.000442e+02
-5.071580e+01
-4.432790e+01
-4.426974e+01
-5.084356e+01
3.047921e+01
7.731822e+01
7.737069e+01
3.075337e+01
1.000320e+02
-5.428945e+01
-4.119875e+01
-4.120905e+01
-5.757213e+01
-1.563218e+02
2.953762e+01
2.676981e+01
-1.581702e+02
-3.818714e+01
-2.337249e+02
-4.068566e+01
-1.159404e+02
-5.972752e+01
-9.017845e+00
-9.520783e-01
1.411438e+01
2.577305e+01
3.023364e+01
2.599353e+01
1.446140e+01
-9.804081e-01
-9.295555e+00
-6.612465e+01
-6.627315e+01
-3.282077e+01
-3.246065e+01
-8.604147e+01
3.447727e+01
7.539458e+01
5.999120e+01
3.487457e+01
6.007600e+01
-1.082148e+02
-4.224187e+01
-1.080497e+02
-1.487562e+02
-4.165120e+01
5.357524e+01
4.921622e+01
4.503359e+01
5.375033e+01
4.917542e+01
-2.403002e+01
-2.025501e+01
-2.032547e+01
1.082174e+01
1.090267e+01
3.896583e+01
-2.414788e+01
3.882250e+01
5.634298e+01
-2.483062e+01
4.571245e+00
9.108314e+01
6.753373e+00
8.815674e+01
-1.996100e+00
-1.162167e+02
-1.176554e+02
-3.371612e+02
-3.359343e+02
-1.623546e+02
7.311216e+01
3.355835e+01
3.539993e+01
7.202878e+01
-3.552317e+02
-1.619571e+02
-2.620543e+02
-2.632521e+02
-9.220022e+01
-1.440174e+02
-9.155095e+01
-3.715243e+01
-3.793589e+01
-1.096925e+01
-1.156184e+01
2.460040e+01
-7.825506e+01
2.361597e+01
-1.170359e+00
6.055722e+00
-1.069545e+01
-9.696020e-01
-1.087737e+01
-2.889033e+00
3.237258e+01
1.843450e+01
-2.990178e+00
1.824108e+01
3.312895e+01
3.493627e+01
-2.559241e+02
-2.547676e+02
8.950184e+01
8.666479e+01
-1.112533e+02
-3.467096e+02
-1.126501e+02
-1.831210e+00
-6.057725e+01
2.714762e+01
2.491762e+01
-8.129029e+01
-1.792567e+01
-3.168539e+01
-8.691727e+01
-8.146012e+01
-3.159879e+01
-1.747700e+01
3.051062e+01
2.961871e+01
2.397232e+01
2.481387e+01
2.964177e+01
3.071500e+01
-6.074236e+01
2.713887e+01
-1.621130e+00
6.575842e+01
-1.379838e+02
-2.284059e+02
-3.123302e+02
8.162210e+01
5.989908e+00
3.184826e+01
6.501348e+01
7.951148e+01
-2.958746e+02
-2.949887e+02
-9.670651e+01
-9.774066e+01
4.399927e+00
3.046085e+01
-2.292622e+02
-1.382828e+02
-8.860968e+00
-8.765080e+00
-9.475072e+00
-9.059786e+00
-9.433940e+00
-9.471038e+00
-8.960576e+00
-8.859266e+00
1.706583e+00
1.730814e+01
1.738046e+01
7.347077e+00
1.731843e+00
2.455223e+01
2.720190e+01
-9.509002e+00
7.328979e+00
2.459789e+01
7.064129e+01
-1.756411e+00
6.933837e+01
-7.418122e+01
-2.634708e+02
-7.485255e+01
2.647295e+01
2.741507e+01
-1.903701e+02
-1.898124e+02
-4.717612e+00
-2.753273e+01
-4.136329e+01
-4.488433e+00
1.422618e+01
1.212935e+01
1.004648e+01
1.443697e+01
-2.769499e+01
1.212633e+01
-3.194774e+01
-1.617151e+01
-1.611144e+01
5.770217e+00
-5.641691e+01
-3.202182e+01
6.142845e+00
1.504703e+01
1.507323e+01
-3.678038e+01
1.287351e+01
1.223262e+00
-1.644291e+01
-4.598360e+00
-4.735834e+00
1.633602e+01
-3.806689e+00
-1.184861e+01
-3.852547e+00
-1.178452e+01
-1.314675e+00
-1.332132e+00
-1.648707e+00
7.251011e+00
-1.713631e+00
7.299563e+00
1.182527e+01
4.092701e+00
1.185152e+01
4.174702e+00
-1.430611e+02
2.171651e+01
-1.509751e+00
4.540647e+01
-7.899223e+01
5.613428e+01
4.533217e+01
5.563095e+01
-1.433387e+02
-4.937096e+01
-7.909586e+01
-4.969608e+01
3.440366e+00
2.121156e+01
3.018735e+00
-1.902031e+02
-2.024153e+02
-1.899755e+02
-9.713770e+01
-1.300225e+00
4.087784e+01
4.107049e+01
-2.651147e+01
-2.653138e+01
1.561045e+01
1.570473e+01
-1.415922e+02
-9.707828e+01
-1.071797e+01
4.809532e+00
-3.492211e+00
4.153435e+00
1.806958e+00
5.571979e+00
1.771896e-01
-1.583939e+01
-1.759036e+01
-1.595450e+01
-1.086036e+01
-3.646030e+00
1.950050e-01
-6.156075e-01
-5.165560e-01
-1.982906e+00
3.508185e+00
-2.124529e+00
1.814589e+00
5.722370e+00
4.045541e+00
3.639128e+00
3.979348e+00
4.808090e+00
5.621322e+00
5.871190e+00
3.519077e+00
-4.635151e+02
1.991870e+02
2.545596e+02
1.995273e+02
-2.133570e+02
-2.111275e+02
2.337615e+02
2.343863e+02
-3.647569e+02
-3.664480e+02
2.386996e+00
-8.348091e+01
-3.710980e-02
2.173940e+00
-8.361014e+01
-5.964853e+01
-9.049743e+01
2.263809e+01
2.741367e+01
1.110358e+01
1.105461e+01
2.777403e+01
-1.082761e+01
-1.069770e+01
-2.665271e+01
2.245139e+01
-2.670966e+01
-5.965210e+01
2.047235e+02
1.732128e+02
1.736659e+02
-3.183178e+02
2.225399e+02
2.041888e+02
-1.814455e+02
-4.071442e+02
-3.196935e+02
-1.796326e+02
-3.661083e+00
1.858128e+00
1.229915e+00
-1.142087e+01
4.709106e+00
-5.072042e+00
4.772576e+00
-3.753885e+00
5.767133e-01
-6.418309e+00
4.472944e-01
-6.854545e-01
-5.709033e-01
-4.816304e-01
-8.579772e-01
-4.580304e-01
2.069134e+00
-5.297783e-01
-6.272604e-01
2.058406e+00
2.034748e+00
1.860522e+00
2.083877e+00
4.916911e+00
-4.312898e+00
5.099014e+00
-1.071836e+01
-4.900895e+00
3.334271e+00
-4.307866e+00
6.793145e+00
8.838420e-01
1.555249e+01
1.590881e+01
6.960957e+00
-4.964751e+01
-3.128745e+01
-2.136385e+00
-1.902597e+00
-3.131639e+01
1.099027e+02
1.320654e+02
1.105677e+02
-1.056626e+02
-1.046575e+02
-2.680960e+02
-2.053977e+02
-2.046802e+02
1.324655e+02
1.447396e+02
2.138855e-01
2.220523e+00
1.532878e+00
3.273600e-01
1.084513e-01
-5.339485e-01
5.809211e-01
-4.472005e+00
7.991572e+00
4.365254e+00
4.217607e+00
6.922099e+00
8.094009e+00
2.034908e+00
4.070416e-01
2.100329e-01
-4.977021e-01
-1.215829e+00
-1.411928e+00
3.555586e-01
6.018763e-01
3.292791e-01
6.077851e-01
5.761264e-01
2.929808e-01
-1.482712e+01
9.960859e-01
-2.227309e+01
-2.508887e+01
-2.241885e+01
-1.480744e+01
-4.352390e+00
1.186841e+00
6.996943e+00
-1.270884e+00
3.699566e-01
5.997920e+01
-9.099363e+01
4.715025e+01
6.668321e+01
5.973682e+01
4.777216e+01
-3.686954e+01
-1.251492e+02
-3.640885e+01
-9.119616e+01
1.802107e+01
5.095032e+00
2.768255e-01
-8.402491e+00
-3.791014e+01
1.202996e+01
2.107661e+01
1.788411e+01
1.221741e+01
5.800099e+00
3.631794e+00
3.546474e+00
5.193360e+00
8.482631e-01
-4.317455e-02
3.356232e-01
-2.849702e-01
9.592602e-02
3.432908e-01
-1.525759e-01
-4.767274e-02
2.961743e-01
-3.015097e-01
4.610494e-01
4.557337e-01
-3.278927e+00
-1.452702e+00
-8.371439e+00
-4.188063e-01
-2.958293e-01
-1.364515e+01
-5.918537e+00
-2.552887e+01
-5.661898e+00
-2.554123e+01
1.212659e+00
1.800175e-01
9.919758e-01
8.954239e-01
-1.477483e+00
-1.759322e+00
-1.845112e+00
4.975813e+00
5.008432e+00
3.842323e+00
3.816361e+00
2.421088e+02
2.762673e+02
4.043588e+02
4.159306e+02
4.019454e+02
3.492106e+02
2.771208e+02
2.447053e+02
3.513208e+02
3.395467e+02
2.342201e+02
4.053502e+02
2.368357e+02
3.416470e+02
3.089126e+02
3.071582e+02
2.411168e+02
3.548438e+02
2.418595e+02
2.102005e+02
3.567695e+02
3.673769e+02
2.124315e+02
1.759161e+02
2.636741e+02
3.158755e+02
2.622699e+02
1.778052e+02
2.093545e+02
1.359548e+02
1.593812e+02
2.445191e+02
2.530359e+02
2.435026e+02
1.599012e+02
1.374736e+02
2.083099e+02
9.582505e+01
1.541805e+02
1.890973e+02
1.535385e+02
9.691922e+01
1.324343e+02
1.054809e+02
6.180298e+01
7.652463e+01
1.058933e+02
1.264850e+02
1.260799e+02
7.683196e+01
6.262287e+01
8.307839e+01
6.467822e+01
3.462565e+01
6.486873e+01
3.510159e+01
1.709015e+01
2.408169e+01
3.690225e+01
4.585792e+01
4.892578e+01
4.571334e+01
3.679906e+01
2.414528e+01
1.732181e+01
-1.475435e-01
-3.539947e-01
2.406079e-02
2.564174e-02
-1.208684e-01
2.647710e-01
2.846650e-01
1.554983e-01
5.943393e-02
-1.029653e+00
-3.470405e+00
-1.025216e+00
-3.522583e+00
-5.438096e+00
-1.726223e+01
-2.414476e+01
-3.688186e+01
-4.561985e+01
-4.867242e+01
-4.574286e+01
-3.685259e+01
-2.400300e+01
-1.701215e+01
-3.481930e+01
-6.481484e+01
-3.447646e+01
-6.487663e+01
-8.275350e+01
-6.217905e+01
-7.664321e+01
-1.056107e+02
-1.260324e+02
-1.263204e+02
-7.647082e+01
-6.159308e+01
-1.320791e+02
-1.058997e+02
-9.641137e+01
-1.536215e+02
-1.888032e+02
-1.541491e+02
-9.555737e+01
-2.092889e+02
-1.370726e+02
-1.597019e+02
-2.434250e+02
-2.528463e+02
-2.443446e+02
-1.593449e+02
-1.356667e+02
-2.083140e+02
-1.775674e+02
-2.621913e+02
-3.158042e+02
-2.635875e+02
-1.756263e+02
-2.123856e+02
-3.547470e+02
-3.674331e+02
-2.099083e+02
-2.418782e+02
-3.566719e+02
-2.411566e+02
-3.070144e+02
-3.088117e+02
-3.393674e+02
-2.369602e+02
-4.054888e+02
-2.339581e+02
-3.415600e+02
-3.490245e+02
-2.448855e+02
-2.772590e+02
-4.018574e+02
-4.161054e+02
-4.043080e+02
-3.512350e+02
-2.763322e+02
-2.418571e+02
1.998951e+00
7.914577e-01
5.743185e-01
5.373149e+00
1.780876e+00
-4.873403e+00
-4.931496e+00
1.843356e+00
-1.848932e-01
-1.465251e+00
-4.737225e-01
-2.972931e-01
-1.529401e+00
-7.074634e-01
3.119869e+00
-1.000755e+00
-3.166141e-01
2.553280e+01
5.800259e+00
3.805528e+01
2.556053e+01
5.726278e+00
2.125561e-01
-8.895127e-03
-1.223162e-01
2.088132e-01
2.356243e-01
-3.729864e-01
-2.247151e-01
1.981804e-01
-3.793333e-01
1.665762e-01
-4.349998e-01
-4.943232e+00
-4.857301e+00
-3.854348e+00
-3.837559e+00
-1.221814e+01
-2.086605e+01
-1.782647e+01
-1.213624e+01
-1.795135e+01
8.589598e+00
8.570142e+00
1.863439e+00
-5.765808e+00
1.362857e+01
9.091961e+01
3.676283e+01
1.254405e+02
3.707356e+01
-4.725143e+01
-6.631785e+01
-5.984408e+01
-4.719025e+01
9.098741e+01
-5.995473e+01
4.508073e+00
-2.945602e-01
9.559561e-01
1.262048e+00
-6.977203e+00
-1.057619e+00
1.478490e+01
2.233930e+01
2.512194e+01
2.245572e+01
1.491770e+01
4.351228e+00
-1.348329e+00
-2.245291e-01
-6.074188e-01
-3.515397e-01
-4.157616e-01
-1.978840e-01
-5.096610e-01
-8.623813e-01
-6.655813e-01
9.456797e-01
-4.427851e-02
-7.629082e-01
-6.691900e-02
-4.233628e+00
-1.986397e+00
-8.159226e+00
-1.997347e+00
-1.373528e+00
-4.062989e+00
-6.909699e+00
-8.220632e+00
-3.693467e-01
1.272388e+00
1.291514e+00
-1.321337e+02
-1.444907e+02
2.052746e+02
2.682393e+02
2.046660e+02
1.049055e+02
1.058717e+02
-1.099679e+02
-1.322597e+02
-1.096653e+02
3.129350e+01
2.238039e+00
1.923669e+00
3.105613e+01
4.979988e+01
-6.988148e+00
-1.566490e+01
-1.581616e+01
-5.731354e-01
-6.726138e+00
-2.248868e+00
-2.505585e+00
4.278609e+00
-1.719980e+00
3.821451e-01
8.232298e-01
5.103375e+00
1.066559e+01
-4.997433e+00
4.432788e+00
-5.361306e+00
-1.666103e+00
-1.387305e+00
-1.613927e+00
-1.717737e+00
4.342325e-01
3.626129e-01
8.524023e-01
-8.057880e-01
4.006199e+00
4.018685e+00
-8.416047e-01
6.354976e+00
-4.915811e+00
5.222970e+00
-4.994580e+00
1.153803e+01
2.771858e-01
-3.556855e+00
1.275251e-01
1.794857e+02
4.069777e+02
3.184430e+02
1.812922e+02
-2.224734e+02
-2.045407e+02
3.197516e+02
-1.734741e+02
-1.726193e+02
-2.040606e+02
2.677113e+01
5.924961e+01
-2.248703e+01
2.666852e+01
1.114403e+01
1.077051e+01
-2.724430e+01
-1.134740e+01
-1.090112e+01
-2.767917e+01
-2.257831e+01
9.069486e+01
5.960553e+01
8.368666e+01
-1.986906e+00
4.158244e-01
8.336962e+01
-2.309178e+00
3.666011e+02
3.649502e+02
-2.335944e+02
-2.342488e+02
2.107625e+02
2.130079e+02
-1.995951e+02
-2.545441e+02
-1.984527e+02
4.632179e+02
1.738557e+00
7.229828e-01
1.720564e+00
-5.851575e+00
-4.115028e+00
-3.745224e+00
-3.941375e+00
-4.724134e+00
-5.635826e+00
-6.126867e+00
-1.533339e+00
-3.580088e+00
-3.569085e+00
-4.042315e-01
1.592095e+01
1.763659e+01
1.596487e+01
1.096224e+01
3.608336e+00
-4.197759e-01
-5.505906e+00
7.134971e-01
-4.347978e+00
-1.602837e+00
3.618530e+00
-4.835143e+00
1.094409e+01
9.708367e+01
1.417545e+02
-1.540067e+01
-1.601129e+01
2.699061e+01
2.654157e+01
-4.036010e+01
-4.109770e+01
1.637645e+00
9.666782e+01
2.024764e+02
1.903009e+02
1.897422e+02
-2.190461e+01
-3.552509e+00
-2.686179e+00
4.999466e+01
7.900863e+01
4.935384e+01
1.427947e+02
-5.500594e+01
-4.546585e+01
-5.615863e+01
7.915294e+01
-4.512315e+01
1.749009e+00
-2.102449e+01
1.433050e+02
-7.152507e+00
1.510962e+00
-4.291878e+00
-1.183522e+01
-4.387462e+00
-1.187590e+01
1.194909e+01
3.576447e+00
1.187029e+01
3.649779e+00
-1.646059e+01
1.398163e+00
-7.235486e+00
1.455827e+00
4.354592e+00
4.486355e+00
1.390385e+00
1.643036e+01
-1.305637e+01
-1.363826e+00
3.689386e+01
-1.457494e+01
-1.525359e+01
-5.700406e+00
5.679231e+01
3.213038e+01
-6.205238e+00
1.612049e+01
1.557844e+01
3.170821e+01
-1.219168e+01
2.764066e+01
-1.420747e+01
-1.243536e+01
-1.004069e+01
-1.451649e+01
4.499657e+00
2.759612e+01
4.156987e+01
4.420735e+00
1.897443e+02
1.903813e+02
-2.745952e+01
-2.629754e+01
7.491926e+01
2.633691e+02
7.405141e+01
-6.889848e+01
1.876742e+00
-7.044506e+01
-1.740179e+01
-2.470861e+01
-7.325805e+00
8.966650e+00
9.569398e+00
9.295164e+00
-2.469582e+01
-2.733167e+01
-1.973429e+00
-1.747931e+01
-7.268645e+00
-1.847734e+00
8.504066e+00
9.387871e+00
9.016283e+00
9.400434e+00
9.000813e+00
8.718087e+00
1.378859e+02
2.285508e+02
-3.173600e+01
-5.741097e+00
9.753148e+01
9.643413e+01
2.950413e+02
2.957985e+02
-7.933702e+01
-4.325265e+00
-3.030768e+01
-6.556948e+01
-8.122119e+01
3.120767e+02
2.293044e+02
1.381892e+02
-6.504556e+01
1.668838e+00
-2.731737e+01
6.058443e+01
-3.033044e+01
-2.961471e+01
-2.389445e+01
-2.475855e+01
-2.976331e+01
-3.064253e+01
1.769199e+01
3.163505e+01
8.721028e+01
8.150209e+01
3.150280e+01
1.757052e+01
8.134341e+01
-2.511181e+01
-2.765158e+01
6.052158e+01
1.874639e+00
1.122020e+02
3.463610e+02
1.108626e+02
-8.672939e+01
-8.894593e+01
2.559737e+02
2.550805e+02
-3.300255e+01
-3.471157e+01
-1.844763e+01
-3.250615e+01
2.655652e+00
-1.860065e+01
2.939565e+00
1.050782e+01
-6.136902e+00
8.423532e-01
1.078363e+01
1.032884e+00
-2.319519e+01
7.830953e+01
-2.468806e+01
1.206265e+01
1.061963e+01
3.678124e+01
3.788642e+01
1.442218e+02
9.228281e+01
9.128936e+01
2.623952e+02
2.633126e+02
1.621640e+02
3.548439e+02
-7.221114e+01
-3.515672e+01
-3.342033e+01
-7.281691e+01
3.361435e+02
3.369897e+02
1.617828e+02
1.171597e+02
1.157817e+02
2.030423e+00
-8.826753e+01
-4.603042e+00
-9.050673e+01
-6.295876e+00
2.486882e+01
-5.642034e+01
-3.913362e+01
2.402581e+01
-3.924020e+01
-1.109066e+01
-1.080360e+01
2.004016e+01
2.031977e+01
2.380906e+01
-4.939488e+01
-5.329698e+01
-4.974633e+01
-4.489004e+01
-5.362487e+01
4.200255e+01
1.079682e+02
1.490476e+02
4.184766e+01
1.080307e+02
-6.040111e+01
-3.471233e+01
-7.533783e+01
-6.040989e+01
-3.450460e+01
8.623019e+01
3.244314e+01
3.269405e+01
6.590749e+01
6.613037e+01
8.888085e+00
8.868762e-01
-1.447028e+01
-2.600195e+01
-3.031817e+01
-2.618373e+01
-1.463827e+01
1.011150e+00
9.182161e+00
5.779296e+01
1.157765e+02
4.065391e+01
2.335841e+02
3.814980e+01
1.564766e+02
-2.681813e+01
-2.962443e+01
1.581931e+02
5.974056e+01
4.097740e+01
4.135590e+01
5.413954e+01
-1.003088e+02
-3.091496e+01
-7.761882e+01
-7.787114e+01
-3.038403e+01
4.422608e+01
5.063931e+01
4.426999e+01
5.037803e+01
-1.000566e+02
-1.066183e+02
-4.605088e+01
-4.622428e+01
5.470116e+01
5.437412e+01
1.699806e+02
-7.888995e+01
-8.184413e+01
-7.366464e+01
-7.857601e+01
1.699054e+02
2.159013e+02
-8.284595e+01
-8.196900e+01
-8.312609e+01
-7.497819e+01
1.066211e+02
2.274623e+02
7.755787e+01
1.065503e+02
7.759967e+01
-7.533166e+01
2.158580e+02
1.025465e+01
-2.486141e+01
1.050094e+01
-2.497213e+01
-4.808044e+01
-1.341612e+01
-1.066101e+02
-7.018012e+01
-1.306285e+01
1.273116e+01
3.318377e+01
-1.817791e+00
3.332201e+01
1.278259e+01
-7.002800e+01
-1.138108e+02
-1.094097e+02
-1.140645e+02
1.170061e+02
2.349574e+02
1.173302e+02
-1.096999e+02
-1.044729e+02
2.352239e+02
3.086563e+02
-6.278288e+01
-6.202504e+01
-1.307630e+02
9.648481e+01
7.134964e+01
7.181585e+01
8.830282e+01
-1.722649e+02
-1.303114e+02
8.803910e+01
-2.751191e+01
1.296709e+02
6.818206e+01
-3.107475e+01
5.299697e+01
2.681999e+02
1.842552e+02
5.000687e+01
1.821907e+02
6.579004e+01
1.016571e+01
-6.276919e+00
-3.984753e+01
-6.459386e+01
-6.469821e+01
-6.234868e+00
1.004997e+01
-7.240189e+01
-3.971105e+01
-1.124197e+02
-1.111850e+02
1.103006e+02
2.317446e+02
1.116105e+02
1.852625e+02
-1.655749e+02
-1.983326e+02
-1.663323e+02
1.861224e+02
-1.387272e+02
-1.395069e+02
-1.306641e+02
-1.352658e+02
-1.398209e+02
1.523734e+02
3.746641e+02
2.893115e+02
1.529707e+02
-1.385416e+02
-1.355795e+02
-1.318676e+02
1.951296e+02
1.950310e+02
2.898016e+02
3.578639e+02
3.582322e+02
-1.322365e+02
-1.341052e+02
-1.956331e+02
-2.402453e+02
1.469119e+02
1.354115e+02
1.178458e+02
-2.520625e+02
-1.056086e+02
-1.337644e+02
-1.044614e+02
1.487812e+02
1.464292e+02
1.095511e+02
1.180288e+02
1.102629e+02
1.350686e+02
-1.963939e+02
-2.410479e+02
7.722748e+00
-5.727767e+01
-9.906924e+01
-5.688420e+01
7.226073e+00
-1.532474e+02
3.269948e+02
3.263022e+02
-1.569659e+02
-1.486047e+02
-1.573811e+02
-1.528888e+02