# vtk DataFile Version 3.0
Unstructured Grid Example
ASCII
DATASET UNSTRUCTURED_GRID
POINTS 832 float
-1	 0	 0
-1	 0	 3.750000e-01
-1	 0	 7.500000e-01
-1	 0	 1.125000e+00
-1	 0	 1.500000e+00
-1	 0	 1.875000e+00
-1	 0	 2.250000e+00
-1	 0	 2.625000e+00
-1	 0	 3
-9.875000e-01	 0	 0
-9.875000e-01	 0	 1.500000e+00
-9.875000e-01	 0	 3
-9.875000e-01	 0	 2.250000e+00
-9.875000e-01	 0	 7.500000e-01
-9.833054e-01	 -1.819631e-01	 7.500000e-01
-9.833054e-01	 -1.819631e-01	 0
-9.833054e-01	 -1.819631e-01	 1.500000e+00
-9.833054e-01	 -1.819631e-01	 3.000000e+00
-9.833054e-01	 1.819631e-01	 2.250000e+00
-9.833054e-01	 1.819631e-01	 0
-9.833054e-01	 1.819631e-01	 1.500000e+00
-9.833054e-01	 1.819631e-01	 3.000000e+00
-9.833054e-01	 1.819631e-01	 7.500000e-01
-9.833054e-01	 -1.819631e-01	 2.250000e+00
-9.750000e-01	 0	 7.500000e-01
-9.750000e-01	 0	 1.125000e+00
-9.750000e-01	 0	 0
-9.750000e-01	 0	 3.750000e-01
-9.750000e-01	 0	 1.875000e+00
-9.750000e-01	 0	 2.625000e+00
-9.750000e-01	 0	 3
-9.750000e-01	 0	 1.500000e+00
-9.750000e-01	 0	 2.250000e+00
-9.625000e-01	 0	 1.500000e+00
-9.625000e-01	 0	 2.250000e+00
-9.625000e-01	 0	 0
-9.625000e-01	 0	 7.500000e-01
-9.625000e-01	 0	 3
-9.587227e-01	 -1.774140e-01	 0
-9.587227e-01	 -1.774140e-01	 3.000000e+00
-9.587227e-01	 -1.774140e-01	 1.500000e+00
-9.587227e-01	 1.774140e-01	 0
-9.587227e-01	 1.774140e-01	 3.000000e+00
-9.587227e-01	 1.774140e-01	 1.500000e+00
-9.587227e-01	 1.774140e-01	 7.500000e-01
-9.587227e-01	 -1.774140e-01	 7.500000e-01
-9.587227e-01	 -1.774140e-01	 2.250000e+00
-9.587227e-01	 1.774140e-01	 2.250000e+00
-9.500000e-01	 0	 0
-9.500000e-01	 0	 3.750000e-01
-9.500000e-01	 0	 1.125000e+00
-9.500000e-01	 0	 1.500000e+00
-9.500000e-01	 0	 1.875000e+00
-9.500000e-01	 0	 2.250000e+00
-9.500000e-01	 0	 2.625000e+00
-9.500000e-01	 0	 3
-9.500000e-01	 0	 7.500000e-01
-9.341401e-01	 -1.728649e-01	 1.500000e+00
-9.341401e-01	 -1.728649e-01	 0
-9.341401e-01	 -1.728649e-01	 3.000000e+00
-9.341401e-01	 1.728649e-01	 2.250000e+00
-9.341401e-01	 1.728649e-01	 0
-9.341401e-01	 1.728649e-01	 1.500000e+00
-9.341401e-01	 1.728649e-01	 3.000000e+00
-9.341401e-01	 -1.728649e-01	 7.500000e-01
-9.341401e-01	 -1.728649e-01	 2.250000e+00
-9.341401e-01	 1.728649e-01	 7.500000e-01
-9.297883e-01	 -3.680947e-01	 1.125000e+00
-9.297883e-01	 -3.680947e-01	 0
-9.297883e-01	 -3.680947e-01	 7.500000e-01
-9.297883e-01	 -3.680947e-01	 1.500000e+00
-9.297883e-01	 -3.680947e-01	 1.875000e+00
-9.297883e-01	 -3.680947e-01	 2.250000e+00
-9.297883e-01	 -3.680947e-01	 2.625000e+00
-9.297883e-01	 -3.680947e-01	 3.000000e+00
-9.297883e-01	 -3.680947e-01	 3.750000e-01
-9.297883e-01	 3.680947e-01	 3.750000e-01
-9.297883e-01	 3.680947e-01	 2.250000e+00
-9.297883e-01	 3.680947e-01	 2.625000e+00
-9.297883e-01	 3.680947e-01	 0
-9.297883e-01	 3.680947e-01	 7.500000e-01
-9.297883e-01	 3.680947e-01	 1.500000e+00
-9.297883e-01	 3.680947e-01	 1.875000e+00
-9.297883e-01	 3.680947e-01	 3.000000e+00
-9.297883e-01	 3.680947e-01	 1.125000e+00
-9.181659e-01	 3.634935e-01	 7.500000e-01
-9.181659e-01	 -3.634935e-01	 0
-9.181659e-01	 -3.634935e-01	 7.500000e-01
-9.181659e-01	 -3.634935e-01	 2.250000e+00
-9.181659e-01	 -3.634935e-01	 3
-9.181659e-01	 3.634935e-01	 0
-9.181659e-01	 3.634935e-01	 2.250000e+00
-9.181659e-01	 3.634935e-01	 3
-9.181659e-01	 -3.634935e-01	 1.500000e+00
-9.181659e-01	 3.634935e-01	 1.500000e+00
-9.065436e-01	 -3.588923e-01	 1.125000e+00
-9.065436e-01	 -3.588923e-01	 2.625000e+00
-9.065436e-01	 -3.588923e-01	 0
-9.065436e-01	 -3.588923e-01	 3.750000e-01
-9.065436e-01	 -3.588923e-01	 1.500000e+00
-9.065436e-01	 -3.588923e-01	 3
-9.065436e-01	 3.588923e-01	 2.625000e+00
-9.065436e-01	 3.588923e-01	 1.125000e+00
-9.065436e-01	 3.588923e-01	 0
-9.065436e-01	 3.588923e-01	 3.750000e-01
-9.065436e-01	 3.588923e-01	 3
-9.065436e-01	 -3.588923e-01	 7.500000e-01
-9.065436e-01	 -3.588923e-01	 1.875000e+00
-9.065436e-01	 3.588923e-01	 1.875000e+00
-9.065436e-01	 3.588923e-01	 1.500000e+00
-9.065436e-01	 -3.588923e-01	 2.250000e+00
-9.065436e-01	 3.588923e-01	 7.500000e-01
-9.065436e-01	 3.588923e-01	 2.250000e+00
-8.949212e-01	 3.542912e-01	 1.500000e+00
-8.949212e-01	 -3.542912e-01	 1.500000e+00
-8.949212e-01	 -3.542912e-01	 0
-8.949212e-01	 -3.542912e-01	 3.000000e+00
-8.949212e-01	 3.542912e-01	 0
-8.949212e-01	 3.542912e-01	 3.000000e+00
-8.949212e-01	 -3.542912e-01	 2.250000e+00
-8.949212e-01	 -3.542912e-01	 7.500000e-01
-8.949212e-01	 3.542912e-01	 2.250000e+00
-8.949212e-01	 3.542912e-01	 7.500000e-01
-8.832989e-01	 -3.496900e-01	 1.125000e+00
-8.832989e-01	 -3.496900e-01	 1.875000e+00
-8.832989e-01	 -3.496900e-01	 2.625000e+00
-8.832989e-01	 -3.496900e-01	 2.250000e+00
-8.832989e-01	 3.496900e-01	 1.125000e+00
-8.832989e-01	 -3.496900e-01	 0
-8.832989e-01	 -3.496900e-01	 3.000000e+00
-8.832989e-01	 -3.496900e-01	 3.750000e-01
-8.832989e-01	 -3.496900e-01	 7.500000e-01
-8.832989e-01	 3.496900e-01	 3.750000e-01
-8.832989e-01	 3.496900e-01	 7.500000e-01
-8.832989e-01	 3.496900e-01	 2.250000e+00
-8.832989e-01	 3.496900e-01	 2.625000e+00
-8.832989e-01	 3.496900e-01	 0
-8.832989e-01	 3.496900e-01	 1.875000e+00
-8.832989e-01	 3.496900e-01	 3.000000e+00
-8.832989e-01	 -3.496900e-01	 1.500000e+00
-8.832989e-01	 3.496900e-01	 1.500000e+00
-8.369955e-01	 -5.472098e-01	 0
-8.369955e-01	 -5.472098e-01	 7.500000e-01
-8.369955e-01	 -5.472098e-01	 1.500000e+00
-8.369955e-01	 -5.472098e-01	 2.250000e+00
-8.369955e-01	 -5.472098e-01	 3
-8.369955e-01	 5.472098e-01	 0
-8.369955e-01	 5.472098e-01	 7.500000e-01
-8.369955e-01	 5.472098e-01	 1.500000e+00
-8.369955e-01	 5.472098e-01	 2.250000e+00
-8.369955e-01	 5.472098e-01	 3
-8.160706e-01	 -5.335295e-01	 7.500000e-01
-8.160706e-01	 5.335295e-01	 7.500000e-01
-8.160706e-01	 -5.335295e-01	 1.500000e+00
-8.160706e-01	 -5.335295e-01	 2.250000e+00
-8.160706e-01	 5.335295e-01	 1.500000e+00
-8.160706e-01	 5.335295e-01	 2.250000e+00
-8.160706e-01	 -5.335295e-01	 0
-8.160706e-01	 -5.335295e-01	 3.000000e+00
-8.160706e-01	 5.335295e-01	 0
-8.160706e-01	 5.335295e-01	 3.000000e+00
-7.951457e-01	 -5.198493e-01	 7.500000e-01
-7.951457e-01	 5.198493e-01	 7.500000e-01
-7.951457e-01	 -5.198493e-01	 0
-7.951457e-01	 -5.198493e-01	 1.500000e+00
-7.951457e-01	 -5.198493e-01	 2.250000e+00
-7.951457e-01	 -5.198493e-01	 3
-7.951457e-01	 5.198493e-01	 0
-7.951457e-01	 5.198493e-01	 1.500000e+00
-7.951457e-01	 5.198493e-01	 2.250000e+00
-7.951457e-01	 5.198493e-01	 3
-7.071068e-01	 -7.071068e-01	 0
-7.071068e-01	 -7.071068e-01	 3.750000e-01
-7.071068e-01	 -7.071068e-01	 7.500000e-01
-7.071068e-01	 -7.071068e-01	 1.125000e+00
-7.071068e-01	 -7.071068e-01	 1.500000e+00
-7.071068e-01	 -7.071068e-01	 1.875000e+00
-7.071068e-01	 -7.071068e-01	 2.250000e+00
-7.071068e-01	 -7.071068e-01	 2.625000e+00
-7.071068e-01	 -7.071068e-01	 3.000000e+00
-7.071068e-01	 7.071068e-01	 0
-7.071068e-01	 7.071068e-01	 3.750000e-01
-7.071068e-01	 7.071068e-01	 7.500000e-01
-7.071068e-01	 7.071068e-01	 1.125000e+00
-7.071068e-01	 7.071068e-01	 1.500000e+00
-7.071068e-01	 7.071068e-01	 1.875000e+00
-7.071068e-01	 7.071068e-01	 2.250000e+00
-7.071068e-01	 7.071068e-01	 2.625000e+00
-7.071068e-01	 7.071068e-01	 3.000000e+00
-6.982679e-01	 -6.982679e-01	 7.500000e-01
-6.982679e-01	 6.982679e-01	 7.500000e-01
-6.982679e-01	 -6.982679e-01	 0
-6.982679e-01	 -6.982679e-01	 2.250000e+00
-6.982679e-01	 -6.982679e-01	 3.000000e+00
-6.982679e-01	 6.982679e-01	 0
-6.982679e-01	 6.982679e-01	 2.250000e+00
-6.982679e-01	 6.982679e-01	 3.000000e+00
-6.982679e-01	 -6.982679e-01	 1.500000e+00
-6.982679e-01	 6.982679e-01	 1.500000e+00
-6.894291e-01	 -6.894291e-01	 3.750000e-01
-6.894291e-01	 -6.894291e-01	 2.625000e+00
-6.894291e-01	 -6.894291e-01	 0
-6.894291e-01	 -6.894291e-01	 1.500000e+00
-6.894291e-01	 -6.894291e-01	 2.250000e+00
-6.894291e-01	 -6.894291e-01	 3.000000e+00
-6.894291e-01	 6.894291e-01	 3.750000e-01
-6.894291e-01	 6.894291e-01	 2.625000e+00
-6.894291e-01	 -6.894291e-01	 1.875000e+00
-6.894291e-01	 6.894291e-01	 1.875000e+00
-6.894291e-01	 -6.894291e-01	 7.500000e-01
-6.894291e-01	 -6.894291e-01	 1.125000e+00
-6.894291e-01	 6.894291e-01	 0
-6.894291e-01	 6.894291e-01	 1.500000e+00
-6.894291e-01	 6.894291e-01	 2.250000e+00
-6.894291e-01	 6.894291e-01	 3.000000e+00
-6.894291e-01	 6.894291e-01	 7.500000e-01
-6.894291e-01	 6.894291e-01	 1.125000e+00
-6.805903e-01	 6.805903e-01	 7.500000e-01
-6.805903e-01	 -6.805903e-01	 7.500000e-01
-6.805903e-01	 -6.805903e-01	 0
-6.805903e-01	 -6.805903e-01	 1.500000e+00
-6.805903e-01	 -6.805903e-01	 3.000000e+00
-6.805903e-01	 6.805903e-01	 0
-6.805903e-01	 6.805903e-01	 1.500000e+00
-6.805903e-01	 6.805903e-01	 3.000000e+00
-6.805903e-01	 6.805903e-01	 2.250000e+00
-6.805903e-01	 -6.805903e-01	 2.250000e+00
-6.717514e-01	 -6.717514e-01	 2.625000e+00
-6.717514e-01	 6.717514e-01	 2.625000e+00
-6.717514e-01	 -6.717514e-01	 0
-6.717514e-01	 -6.717514e-01	 3.750000e-01
-6.717514e-01	 -6.717514e-01	 7.500000e-01
-6.717514e-01	 -6.717514e-01	 1.125000e+00
-6.717514e-01	 -6.717514e-01	 1.875000e+00
-6.717514e-01	 -6.717514e-01	 3.000000e+00
-6.717514e-01	 -6.717514e-01	 2.250000e+00
-6.717514e-01	 6.717514e-01	 1.500000e+00
-6.717514e-01	 6.717514e-01	 0
-6.717514e-01	 6.717514e-01	 3.750000e-01
-6.717514e-01	 6.717514e-01	 7.500000e-01
-6.717514e-01	 6.717514e-01	 1.125000e+00
-6.717514e-01	 6.717514e-01	 1.875000e+00
-6.717514e-01	 6.717514e-01	 3.000000e+00
-6.717514e-01	 -6.717514e-01	 1.500000e+00
-6.717514e-01	 6.717514e-01	 2.250000e+00
-5.472098e-01	 -8.369955e-01	 0
-5.472098e-01	 -8.369955e-01	 7.500000e-01
-5.472098e-01	 -8.369955e-01	 1.500000e+00
-5.472098e-01	 -8.369955e-01	 2.250000e+00
-5.472098e-01	 -8.369955e-01	 3
-5.472098e-01	 8.369955e-01	 0
-5.472098e-01	 8.369955e-01	 7.500000e-01
-5.472098e-01	 8.369955e-01	 1.500000e+00
-5.472098e-01	 8.369955e-01	 2.250000e+00
-5.472098e-01	 8.369955e-01	 3
-5.335295e-01	 -8.160706e-01	 1.500000e+00
-5.335295e-01	 -8.160706e-01	 2.250000e+00
-5.335295e-01	 8.160706e-01	 0
-5.335295e-01	 8.160706e-01	 3.000000e+00
[...]
POINT_DATA 832
VECTORS displacement float
0	 0	 1.091904e-05
6.953803e-11	 4.960953e-15	 1.091904e-05
1.269440e-10	 8.607431e-15	 1.091904e-05
1.678833e-10	 1.026881e-14	 1.091903e-05
1.795309e-10	 1.018054e-14	 1.091903e-05
1.678863e-10	 8.606313e-15	 1.091902e-05
1.269476e-10	 6.172611e-15	 1.091902e-05
6.954046e-11	 3.223815e-15	 1.091902e-05
0	 0	 1.091901e-05
0	 0	 1.091904e-05
1.800517e-10	 1.044913e-14	 1.091903e-05
0	 0	 1.091902e-05
1.273158e-10	 6.295114e-15	 1.091902e-05
1.273122e-10	 8.985411e-15	 1.091904e-05
9.689577e-11	 4.132679e-12	 1.091904e-05
0	 0	 1.091904e-05
1.370319e-10	 5.842396e-12	 1.091903e-05
0	 0	 1.091902e-05
9.689154e-11	 -4.117538e-12	 1.091902e-05
0	 0	 1.091904e-05
1.370236e-10	 -5.821436e-12	 1.091903e-05
0	 0	 1.091902e-05
9.688508e-11	 -4.114601e-12	 1.091904e-05
9.689550e-11	 4.130158e-12	 1.091902e-05
1.275025e-10	 9.361875e-15	 1.091904e-05
1.684449e-10	 1.100047e-14	 1.091903e-05
0	 0	 1.091904e-05
6.977062e-11	 5.479470e-15	 1.091904e-05
1.684478e-10	 8.993958e-15	 1.091903e-05
6.977306e-11	 3.335342e-15	 1.091902e-05
0	 0	 1.091902e-05
1.803208e-10	 1.072056e-14	 1.091903e-05
1.275061e-10	 6.418269e-15	 1.091902e-05
1.805101e-10	 1.098856e-14	 1.091903e-05
1.276400e-10	 6.541369e-15	 1.091902e-05
0	 0	 1.091904e-05
1.276363e-10	 9.735678e-15	 1.091903e-05
0	 0	 1.091902e-05
0	 0	 1.091904e-05
0	 0	 1.091902e-05
1.392740e-10	 -5.254525e-12	 1.091903e-05
0	 0	 1.091904e-05
0	 0	 1.091902e-05
1.392659e-10	 5.276693e-12	 1.091903e-05
9.847060e-11	 3.733030e-12	 1.091903e-05
9.848105e-11	 -3.713560e-12	 1.091903e-05
9.848089e-11	 -3.716651e-12	 1.091902e-05
9.847703e-11	 3.729865e-12	 1.091902e-05
0	 0	 1.091903e-05
6.972273e-11	 5.995882e-15	 1.091903e-05
1.683292e-10	 1.173145e-14	 1.091903e-05
1.803984e-10	 1.125701e-14	 1.091903e-05
1.683322e-10	 9.382492e-15	 1.091903e-05
1.275610e-10	 6.663713e-15	 1.091903e-05
6.972517e-11	 3.449185e-15	 1.091902e-05
0	 0	 1.091902e-05
1.275573e-10	 1.011049e-14	 1.091903e-05
1.408673e-10	 -1.658139e-11	 1.091903e-05
0	 0	 1.091903e-05
0	 0	 1.091902e-05
9.960377e-11	 1.173986e-11	 1.091903e-05
0	 0	 1.091903e-05
1.408593e-10	 1.660477e-11	 1.091903e-05
0	 0	 1.091902e-05
9.960759e-11	 -1.172238e-11	 1.091903e-05
9.960754e-11	 -1.172605e-11	 1.091903e-05
9.959739e-11	 1.174325e-11	 1.091903e-05
1.527506e-11	 -2.074110e-11	 1.091903e-05
0	 0	 1.091903e-05
1.168282e-11	 -1.597305e-11	 1.091903e-05
1.651759e-11	 -2.259304e-11	 1.091903e-05
1.527180e-11	 -2.074373e-11	 1.091903e-05
1.167814e-11	 -1.597686e-11	 1.091903e-05
6.325245e-12	 -8.592590e-12	 1.091903e-05
0	 0	 1.091903e-05
6.329127e-12	 -8.589689e-12	 1.091903e-05
6.315609e-12	 8.602425e-12	 1.091903e-05
1.166924e-11	 1.599081e-11	 1.091903e-05
6.320957e-12	 8.599808e-12	 1.091903e-05
0	 0	 1.091903e-05
1.166241e-11	 1.599419e-11	 1.091903e-05
1.649945e-11	 2.261659e-11	 1.091903e-05
1.525833e-11	 2.076326e-11	 1.091903e-05
0	 0	 1.091903e-05
1.525338e-11	 2.076575e-11	 1.091903e-05
1.421179e-11	 2.248372e-11	 1.091903e-05
0	 0	 1.091903e-05
1.423202e-11	 -2.246198e-11	 1.091903e-05
1.422744e-11	 -2.246608e-11	 1.091903e-05
0	 0	 1.091903e-05
0	 0	 1.091903e-05
1.421864e-11	 2.248035e-11	 1.091903e-05
0	 0	 1.091903e-05
2.012280e-11	 -3.177009e-11	 1.091903e-05
2.010489e-11	 3.179429e-11	 1.091903e-05
2.188115e-11	 -3.752444e-11	 1.091903e-05
9.061644e-12	 -1.554466e-11	 1.091903e-05
0	 0	 1.091903e-05
9.065390e-12	 -1.554137e-11	 1.091903e-05
2.370556e-11	 -4.086461e-11	 1.091903e-05
0	 0	 1.091903e-05
9.057471e-12	 1.555221e-11	 1.091903e-05
2.185993e-11	 3.755049e-11	 1.091903e-05
0	 0	 1.091903e-05
9.052099e-12	 1.555482e-11	 1.091903e-05
0	 0	 1.091903e-05
1.676533e-11	 -2.889255e-11	 1.091903e-05
2.187804e-11	 -3.752751e-11	 1.091903e-05
2.186492e-11	 3.754802e-11	 1.091903e-05
2.368787e-11	 4.088945e-11	 1.091903e-05
1.676085e-11	 -2.889694e-11	 1.091903e-05
1.674529e-11	 2.891489e-11	 1.091903e-05
1.675218e-11	 2.891154e-11	 1.091903e-05
2.724376e-11	 4.989881e-11	 1.091903e-05
2.726122e-11	 -4.987333e-11	 1.091903e-05
0	 0	 1.091903e-05
0	 0	 1.091903e-05
0	 0	 1.091903e-05
0	 0	 1.091903e-05
1.927510e-11	 -3.526712e-11	 1.091903e-05
1.927949e-11	 -3.526245e-11	 1.091903e-05
1.926655e-11	 3.528205e-11	 1.091903e-05
1.925964e-11	 3.528539e-11	 1.091903e-05
2.845832e-11	 -5.416087e-11	 1.091903e-05
2.845537e-11	 -5.416437e-11	 1.091903e-05
1.178606e-11	 -2.243588e-11	 1.091903e-05
2.181935e-11	 -4.169427e-11	 1.091903e-05
2.843758e-11	 5.418830e-11	 1.091903e-05
0	 0	 1.091903e-05
0	 0	 1.091903e-05
1.178966e-11	 -2.243221e-11	 1.091903e-05
2.182364e-11	 -4.168931e-11	 1.091903e-05
1.177663e-11	 2.244636e-11	 1.091903e-05
2.180400e-11	 4.171285e-11	 1.091903e-05
2.181092e-11	 4.170953e-11	 1.091903e-05
1.178201e-11	 2.244376e-11	 1.091903e-05
0	 0	 1.091903e-05
2.844259e-11	 5.418586e-11	 1.091903e-05
0	 0	 1.091903e-05
3.085931e-11	 -5.896260e-11	 1.091903e-05
3.084208e-11	 5.898873e-11	 1.091903e-05
0	 0	 1.091902e-05
-6.532842e-11	 -6.062369e-11	 1.091902e-05
-9.239616e-11	 -8.574079e-11	 1.091903e-05
-6.533644e-11	 -6.062940e-11	 1.091904e-05
0	 0	 1.091904e-05
0	 0	 1.091902e-05
-6.535560e-11	 6.064887e-11	 1.091902e-05
-9.242247e-11	 8.576870e-11	 1.091903e-05
-6.534973e-11	 6.064571e-11	 1.091904e-05
0	 0	 1.091904e-05
-6.120774e-11	 -6.708034e-11	 1.091902e-05
-6.123466e-11	 6.710607e-11	 1.091902e-05
-8.656852e-11	 -9.487210e-11	 1.091903e-05
-6.121563e-11	 -6.708629e-11	 1.091903e-05
-8.659440e-11	 9.490081e-11	 1.091903e-05
-6.122865e-11	 6.710309e-11	 1.091903e-05
0	 0	 1.091902e-05
0	 0	 1.091904e-05
0	 0	 1.091902e-05
0	 0	 1.091904e-05
-5.668040e-11	 -7.334801e-11	 1.091903e-05
-5.670699e-11	 7.337429e-11	 1.091903e-05
0	 0	 1.091902e-05
-8.016574e-11	 -1.037362e-10	 1.091903e-05
-5.668812e-11	 -7.335420e-11	 1.091903e-05
0	 0	 1.091903e-05
0	 0	 1.091902e-05
-8.019114e-11	 1.037657e-10	 1.091903e-05
-5.670086e-11	 7.337148e-11	 1.091903e-05
0	 0	 1.091903e-05
0	 0	 1.091901e-05
-4.697510e-11	 -4.697358e-11	 1.091902e-05
-8.562513e-11	 -8.562221e-11	 1.091902e-05
-1.134147e-10	 -1.134104e-10	 1.091902e-05
-1.210997e-10	 -1.210945e-10	 1.091903e-05
-1.134208e-10	 -1.134153e-10	 1.091903e-05
-8.563321e-11	 -8.562841e-11	 1.091904e-05
-4.698099e-11	 -4.697815e-11	 1.091904e-05
0	 0	 1.091904e-05
0	 0	 1.091901e-05
-4.699239e-11	 4.698959e-11	 1.091902e-05
-8.565362e-11	 8.564918e-11	 1.091902e-05
-1.134476e-10	 1.134430e-10	 1.091902e-05
-1.211299e-10	 1.211259e-10	 1.091903e-05
-1.134446e-10	 1.134415e-10	 1.091903e-05
-8.564958e-11	 8.564741e-11	 1.091904e-05
-4.698929e-11	 4.698818e-11	 1.091904e-05
0	 0	 1.091904e-05
-8.586574e-11	 -8.586262e-11	 1.091902e-05
-8.589429e-11	 8.588964e-11	 1.091902e-05
0	 0	 1.091902e-05
-8.587387e-11	 -8.586881e-11	 1.091904e-05
0	 0	 1.091904e-05
0	 0	 1.091902e-05
-8.589013e-11	 8.588797e-11	 1.091904e-05
0	 0	 1.091904e-05
-1.214401e-10	 -1.214344e-10	 1.091903e-05
-1.214702e-10	 1.214661e-10	 1.091903e-05
-4.712919e-11	 -4.712750e-11	 1.091902e-05
-4.713517e-11	 -4.713201e-11	 1.091904e-05
0	 0	 1.091902e-05
-1.216343e-10	 -1.216282e-10	 1.091903e-05
-8.601119e-11	 -8.600586e-11	 1.091904e-05
0	 0	 1.091904e-05
-4.714660e-11	 4.714348e-11	 1.091902e-05
-4.714333e-11	 4.714223e-11	 1.091904e-05
-1.137930e-10	 -1.137868e-10	 1.091903e-05
-1.138166e-10	 1.138133e-10	 1.091903e-05
-8.600300e-11	 -8.599968e-11	 1.091902e-05
-1.137868e-10	 -1.137819e-10	 1.091903e-05
0	 0	 1.091902e-05
-1.216643e-10	 1.216601e-10	 1.091903e-05
-8.602733e-11	 8.602517e-11	 1.091904e-05
0	 0	 1.091904e-05
-8.603159e-11	 8.602675e-11	 1.091902e-05
-1.138197e-10	 1.138147e-10	 1.091903e-05
-8.614612e-11	 8.614107e-11	 1.091902e-05
-8.611748e-11	 -8.611395e-11	 1.091902e-05
0	 0	 1.091902e-05
-1.217963e-10	 -1.217898e-10	 1.091903e-05
0	 0	 1.091904e-05
0	 0	 1.091902e-05
-1.218262e-10	 1.218218e-10	 1.091903e-05
0	 0	 1.091904e-05
-8.614174e-11	 8.613959e-11	 1.091903e-05
-8.612572e-11	 -8.612012e-11	 1.091903e-05
-4.713323e-11	 -4.712974e-11	 1.091903e-05
-4.714123e-11	 4.714016e-11	 1.091903e-05
0	 0	 1.091902e-05
-4.712716e-11	 -4.712531e-11	 1.091902e-05
-8.610525e-11	 -8.610152e-11	 1.091903e-05
-1.137820e-10	 -1.137765e-10	 1.091903e-05
-1.137883e-10	 -1.137813e-10	 1.091903e-05
0	 0	 1.091903e-05
-8.611354e-11	 -8.610767e-11	 1.091903e-05
-1.218088e-10	 1.218043e-10	 1.091903e-05
0	 0	 1.091902e-05
-4.714468e-11	 4.714124e-11	 1.091902e-05
-8.613392e-11	 8.612867e-11	 1.091903e-05
-1.138149e-10	 1.138095e-10	 1.091903e-05
-1.138116e-10	 1.138082e-10	 1.091903e-05
0	 0	 1.091903e-05
-1.217790e-10	 -1.217722e-10	 1.091903e-05
-8.612943e-11	 8.612729e-11	 1.091903e-05
0	 0	 1.091902e-05
-6.062431e-11	 -6.532235e-11	 1.091902e-05
-8.574123e-11	 -9.238457e-11	 1.091903e-05
-6.063035e-11	 -6.532697e-11	 1.091904e-05
0	 0	 1.091904e-05
0	 0	 1.091902e-05
-6.065066e-11	 6.534790e-11	 1.091902e-05
-8.577134e-11	 9.241657e-11	 1.091903e-05
-6.064807e-11	 6.534772e-11	 1.091904e-05
0	 0	 1.091904e-05
-9.487320e-11	 -8.655649e-11	 1.091903e-05
-6.708782e-11	 -6.120576e-11	 1.091903e-05
0	 0	 1.091902e-05
0	 0	 1.091904e-05
-9.490359e-11	 8.658840e-11	 1.091903e-05
-6.710541e-11	 6.122666e-11	 1.091903e-05
-6.708125e-11	 -6.120147e-11	 1.091902e-05
0	 0	 1.091902e-05
0	 0	 1.091904e-05
-6.710821e-11	 6.122672e-11	 1.091902e-05
-7.337678e-11	 5.669882e-11	 1.091903e-05
-7.334923e-11	 -5.667394e-11	 1.091903e-05
0	 0	 1.091902e-05
-1.037379e-10	 -8.015326e-11	 1.091903e-05
-7.335632e-11	 -5.667786e-11	 1.091903e-05
0	 0	 1.091903e-05
0	 0	 1.091902e-05
-1.037686e-10	 8.018505e-11	 1.091903e-05
-7.337376e-11	 5.669890e-11	 1.091903e-05
0	 0	 1.091903e-05
-2.074021e-11	 1.528760e-11	 1.091903e-05
-2.076746e-11	 -1.526256e-11	 1.091903e-05
0	 0	 1.091903e-05
-1.597293e-11	 1.169065e-11	 1.091903e-05
-2.259163e-11	 1.653372e-11	 1.091903e-05
-2.074212e-11	 1.528875e-11	 1.091903e-05
0	 0	 1.091903e-05
0	 0	 1.091903e-05
-1.599500e-11	 -1.167232e-11	 1.091903e-05
-2.261917e-11	 -1.650579e-11	 1.091903e-05
-2.076627e-11	 -1.526164e-11	 1.091903e-05
-1.599333e-11	 -1.167080e-11	 1.091903e-05
-8.601315e-12	 -6.321438e-12	 1.091903e-05
0	 0	 1.091903e-05
-8.589970e-12	 6.332456e-12	 1.091903e-05
-1.597551e-11	 1.169232e-11	 1.091903e-05
-8.591745e-12	 6.333795e-12	 1.091903e-05
-8.602284e-12	 -6.322995e-12	 1.091903e-05
-3.176886e-11	 2.013904e-11	 1.091903e-05
-3.179683e-11	 -2.011121e-11	 1.091903e-05
-2.246191e-11	 1.423987e-11	 1.091903e-05
0	 0	 1.091903e-05
-2.246500e-11	 1.424175e-11	 1.091903e-05
0	 0	 1.091903e-05
0	 0	 1.091903e-05
-2.248462e-11	 -1.422175e-11	 1.091903e-05
-2.248284e-11	 -1.422019e-11	 1.091903e-05
0	 0	 1.091903e-05
-2.889613e-11	 1.677530e-11	 1.091903e-05
-2.891400e-11	 -1.675370e-11	 1.091903e-05
-3.755229e-11	 -2.186917e-11	 1.091903e-05
-1.555366e-11	 -9.057924e-12	 1.091903e-05
0	 0	 1.091903e-05
-1.554167e-11	 9.068732e-12	 1.091903e-05
0	 0	 1.091903e-05
-4.086355e-11	 2.372189e-11	 1.091903e-05
0	 0	 1.091903e-05
-1.555483e-11	 -9.059563e-12	 1.091903e-05
-4.089195e-11	 -2.369417e-11	 1.091903e-05
0	 0	 1.091903e-05
-3.752377e-11	 2.189381e-11	 1.091903e-05
-3.752641e-11	 2.189525e-11	 1.091903e-05
-2.889252e-11	 1.677321e-11	 1.091903e-05
-2.891589e-11	 -1.675531e-11	 1.091903e-05
-3.755091e-11	 -2.186818e-11	 1.091903e-05
-1.554413e-11	 9.070344e-12	 1.091903e-05
-4.987244e-11	 2.727764e-11	 1.091903e-05
-3.526659e-11	 1.928968e-11	 1.091903e-05
-3.528447e-11	 -1.926806e-11	 1.091903e-05
0	 0	 1.091903e-05
0	 0	 1.091903e-05
-4.990126e-11	 -2.725004e-11	 1.091903e-05
0	 0	 1.091903e-05
0	 0	 1.091903e-05
-3.526247e-11	 1.928739e-11	 1.091903e-05
-3.528647e-11	 -1.926972e-11	 1.091903e-05
-5.416043e-11	 2.847107e-11	 1.091903e-05
0	 0	 1.091903e-05
-5.416380e-11	 2.847281e-11	 1.091903e-05
0	 0	 1.091903e-05
-5.896190e-11	 3.087581e-11	 1.091903e-05
0	 0	 1.091903e-05
0	 0	 1.091903e-05
-5.419019e-11	 -2.844687e-11	 1.091903e-05
-5.418863e-11	 -2.844579e-11	 1.091903e-05
-2.244515e-11	 -1.178243e-11	 1.091903e-05
-2.243253e-11	 1.179302e-11	 1.091903e-05
-4.168938e-11	 2.183156e-11	 1.091903e-05
-4.169401e-11	 2.183406e-11	 1.091903e-05
-2.243567e-11	 1.179490e-11	 1.091903e-05
-5.899114e-11	 -3.084834e-11	 1.091903e-05
-2.244652e-11	 -1.178415e-11	 1.091903e-05
-4.171192e-11	 -2.181241e-11	 1.091903e-05
-4.171403e-11	 -2.181412e-11	 1.091903e-05
4.132884e-12	 9.690401e-11	 1.091904e-05
4.114289e-12	 -9.689642e-11	 1.091904e-05
0	 0	 1.091904e-05
5.843981e-12	 1.370497e-10	 1.091903e-05
0	 0	 1.091902e-05
0	 0	 1.091904e-05
5.819009e-12	 -1.370295e-10	 1.091903e-05
0	 0	 1.091902e-05
4.132149e-12	 9.691290e-11	 1.091902e-05
4.115160e-12	 -9.689285e-11	 1.091902e-05
-3.713387e-12	 9.848931e-11	 1.091903e-05
0	 0	 1.091904e-05
0	 0	 1.091902e-05
-3.733470e-12	 -9.848198e-11	 1.091903e-05
-3.732303e-12	 -9.847835e-11	 1.091902e-05
0	 0	 1.091904e-05
0	 0	 1.091902e-05
-3.714842e-12	 9.849837e-11	 1.091902e-05
-5.279206e-12	 -1.392718e-10	 1.091903e-05
-5.252971e-12	 1.392918e-10	 1.091903e-05
-1.660737e-11	 -1.408653e-10	 1.091903e-05
0	 0	 1.091903e-05
-1.657987e-11	 1.408851e-10	 1.091903e-05
0	 0	 1.091902e-05
0	 0	 1.091903e-05
0	 0	 1.091902e-05
-1.172443e-11	 9.962505e-11	 1.091903e-05
-1.172224e-11	 9.961587e-11	 1.091903e-05
-1.174383e-11	 -9.960881e-11	 1.091903e-05
-1.174236e-11	 -9.960511e-11	 1.091903e-05
0	 0	 1.091904e-05
4.930941e-15	 6.954181e-11	 1.091904e-05
8.903788e-15	 1.269526e-10	 1.091904e-05
1.114932e-14	 1.678963e-10	 1.091903e-05
1.159905e-14	 1.795480e-10	 1.091903e-05
1.035165e-14	 1.679058e-10	 1.091902e-05
7.860890e-15	 1.269646e-10	 1.091902e-05
4.277799e-15	 6.955032e-11	 1.091902e-05
0	 0	 1.091901e-05
0	 0	 1.091904e-05
1.195691e-14	 1.800687e-10	 1.091903e-05
0	 0	 1.091902e-05
8.119521e-15	 1.273328e-10	 1.091902e-05
9.256941e-15	 1.273208e-10	 1.091904e-05
9.610833e-15	 1.275111e-10	 1.091904e-05
1.195962e-14	 1.684579e-10	 1.091903e-05
0	 0	 1.091904e-05
5.378605e-15	 6.977440e-11	 1.091904e-05
1.095250e-14	 1.684674e-10	 1.091903e-05
4.583566e-15	 6.978295e-11	 1.091902e-05
0	 0	 1.091902e-05
1.231631e-14	 1.803379e-10	 1.091903e-05
8.376389e-15	 1.275232e-10	 1.091902e-05
1.267247e-14	 1.805272e-10	 1.091903e-05
8.632332e-15	 1.276570e-10	 1.091902e-05
0	 0	 1.091904e-05
9.961096e-15	 1.276449e-10	 1.091903e-05
0	 0	 1.091902e-05
0	 0	 1.091903e-05
5.826292e-15	 6.972651e-11	 1.091903e-05
1.276715e-14	 1.683423e-10	 1.091903e-05
1.303039e-14	 1.804155e-10	 1.091903e-05
1.155329e-14	 1.683518e-10	 1.091903e-05
8.889521e-15	 1.275781e-10	 1.091903e-05
4.888450e-15	 6.973507e-11	 1.091902e-05
0	 0	 1.091902e-05
1.031315e-14	 1.275659e-10	 1.091903e-05
-1.042887e-14	 -1.275693e-10	 1.091903e-05
0	 0	 1.091903e-05
-5.566592e-15	 -6.973055e-11	 1.091903e-05
-1.339967e-14	 -1.683409e-10	 1.091903e-05
-1.408261e-14	 -1.804062e-10	 1.091903e-05
-1.246309e-14	 -1.683367e-10	 1.091903e-05
-9.137865e-15	 -1.275636e-10	 1.091903e-05
-4.794750e-15	 -6.972595e-11	 1.091902e-05
0	 0	 1.091902e-05
0	 0	 1.091904e-05
-1.000849e-14	 -1.276483e-10	 1.091903e-05
0	 0	 1.091902e-05
-1.358628e-14	 -1.805179e-10	 1.091903e-05
-8.870730e-15	 -1.276426e-10	 1.091902e-05
-1.309341e-14	 -1.803286e-10	 1.091903e-05
-8.604301e-15	 -1.275088e-10	 1.091902e-05
0	 0	 1.091904e-05
-5.130524e-15	 -6.977844e-11	 1.091904e-05
-1.163131e-14	 -1.684523e-10	 1.091903e-05
-4.521068e-15	 -6.977384e-11	 1.091902e-05
0	 0	 1.091902e-05
-9.590060e-15	 -1.275145e-10	 1.091904e-05
-1.237149e-14	 -1.684565e-10	 1.091903e-05
-9.169859e-15	 -1.273241e-10	 1.091904e-05
-8.334349e-15	 -1.273184e-10	 1.091902e-05
0	 0	 1.091904e-05
-1.259430e-14	 -1.800594e-10	 1.091903e-05
0	 0	 1.091902e-05
0	 0	 1.091904e-05
-4.693542e-15	 -6.954583e-11	 1.091904e-05
-8.748238e-15	 -1.269559e-10	 1.091904e-05
-1.133814e-14	 -1.678949e-10	 1.091903e-05
-1.209724e-14	 -1.795387e-10	 1.091903e-05
-1.079573e-14	 -1.678908e-10	 1.091902e-05
-8.066629e-15	 -1.269502e-10	 1.091902e-05
-4.245257e-15	 -6.954125e-11	 1.091902e-05
0	 0	 1.091901e-05
1.174349e-11	 9.960635e-11	 1.091903e-05
1.174256e-11	 9.961859e-11	 1.091903e-05
1.172239e-11	 -9.961953e-11	 1.091903e-05
1.172334e-11	 -9.961283e-11	 1.091903e-05
0	 0	 1.091903e-05
0	 0	 1.091902e-05
0	 0	 1.091903e-05
1.657827e-11	 -1.408787e-10	 1.091903e-05
0	 0	 1.091902e-05
1.660659e-11	 1.408756e-10	 1.091903e-05
5.251945e-12	 -1.392855e-10	 1.091903e-05
5.278409e-12	 1.392820e-10	 1.091903e-05
3.714436e-12	 -9.848626e-11	 1.091902e-05
0	 0	 1.091904e-05
0	 0	 1.091902e-05
3.733348e-12	 9.847957e-11	 1.091903e-05
3.732157e-12	 9.849176e-11	 1.091902e-05
0	 0	 1.091904e-05
0	 0	 1.091902e-05
3.713387e-12	 -9.849295e-11	 1.091903e-05
-4.115642e-12	 9.690617e-11	 1.091902e-05
-4.131885e-12	 -9.690095e-11	 1.091902e-05
0	 0	 1.091904e-05
-5.819826e-12	 1.370397e-10	 1.091903e-05
0	 0	 1.091902e-05
0	 0	 1.091904e-05
-5.844446e-12	 -1.370436e-10	 1.091903e-05
0	 0	 1.091902e-05
-4.114207e-12	 9.689406e-11	 1.091904e-05
-4.133018e-12	 -9.690761e-11	 1.091904e-05
4.171305e-11	 2.181345e-11	 1.091903e-05
4.171343e-11	 2.182249e-11	 1.091903e-05
2.244612e-11	 1.178177e-11	 1.091903e-05
5.899092e-11	 3.085740e-11	 1.091903e-05
2.243404e-11	 -1.179410e-11	 1.091903e-05
4.169050e-11	 -2.183336e-11	 1.091903e-05
4.169036e-11	 -2.182874e-11	 1.091903e-05
2.243380e-11	 -1.179092e-11	 1.091903e-05
5.418932e-11	 2.845051e-11	 1.091903e-05
5.418923e-11	 2.845795e-11	 1.091903e-05
2.244637e-11	 1.178800e-11	 1.091903e-05
0	 0	 1.091903e-05
0	 0	 1.091903e-05
5.895860e-11	 -3.087428e-11	 1.091903e-05
0	 0	 1.091903e-05
5.415949e-11	 -2.846873e-11	 1.091903e-05
0	 0	 1.091903e-05
5.415945e-11	 -2.847205e-11	 1.091903e-05
3.528560e-11	 1.926910e-11	 1.091903e-05
3.526342e-11	 -1.928913e-11	 1.091903e-05
0	 0	 1.091903e-05
0	 0	 1.091903e-05
4.990093e-11	 2.725904e-11	 1.091903e-05
0	 0	 1.091903e-05
0	 0	 1.091903e-05
3.528572e-11	 1.927802e-11	 1.091903e-05
3.526349e-11	 -1.928459e-11	 1.091903e-05
4.986952e-11	 -2.727626e-11	 1.091903e-05
1.554294e-11	 -9.066632e-12	 1.091903e-05
2.891511e-11	 1.675475e-11	 1.091903e-05
3.755098e-11	 2.188010e-11	 1.091903e-05
2.889330e-11	 -1.677488e-11	 1.091903e-05
3.752325e-11	 -2.189163e-11	 1.091903e-05
3.752290e-11	 -2.189483e-11	 1.091903e-05
0	 0	 1.091903e-05
1.555464e-11	 9.057259e-12	 1.091903e-05
4.089149e-11	 2.370310e-11	 1.091903e-05
0	 0	 1.091903e-05
4.086099e-11	 -2.372065e-11	 1.091903e-05
0	 0	 1.091903e-05
1.554282e-11	 -9.069674e-12	 1.091903e-05
0	 0	 1.091903e-05
3.755149e-11	 2.187283e-11	 1.091903e-05
1.555451e-11	 9.063335e-12	 1.091903e-05
2.891498e-11	 1.676354e-11	 1.091903e-05
2.889359e-11	 -1.677044e-11	 1.091903e-05
0	 0	 1.091903e-05
2.248395e-11	 1.422124e-11	 1.091903e-05
2.248356e-11	 1.422991e-11	 1.091903e-05
0	 0	 1.091903e-05
0	 0	 1.091903e-05
2.246302e-11	 -1.423712e-11	 1.091903e-05
0	 0	 1.091903e-05
2.246252e-11	 -1.424147e-11	 1.091903e-05
3.179625e-11	 2.012007e-11	 1.091903e-05
3.176667e-11	 -2.013794e-11	 1.091903e-05
8.602299e-12	 6.320782e-12	 1.091903e-05
8.590760e-12	 -6.333258e-12	 1.091903e-05
1.597409e-11	 -1.168793e-11	 1.091903e-05
8.591217e-12	 -6.330361e-12	 1.091903e-05
0	 0	 1.091903e-05
1.599443e-11	 1.167185e-11	 1.091903e-05
2.261848e-11	 1.651458e-11	 1.091903e-05
2.076581e-11	 1.527331e-11	 1.091903e-05
1.599379e-11	 1.168039e-11	 1.091903e-05
8.601805e-12	 6.326685e-12	 1.091903e-05
0	 0	 1.091903e-05
0	 0	 1.091903e-05
1.597338e-11	 -1.169217e-11	 1.091903e-05
2.258981e-11	 -1.653277e-11	 1.091903e-05
2.074010e-11	 -1.528559e-11	 1.091903e-05
0	 0	 1.091903e-05
2.076673e-11	 1.526624e-11	 1.091903e-05
2.073946e-11	 -1.528866e-11	 1.091903e-05
0	 0	 1.091902e-05
1.037698e-10	 -8.017845e-11	 1.091903e-05
7.337763e-11	 -5.669326e-11	 1.091903e-05
0	 0	 1.091903e-05
0	 0	 1.091902e-05
1.037326e-10	 8.014994e-11	 1.091903e-05
7.334944e-11	 5.667552e-11	 1.091903e-05
0	 0	 1.091903e-05
7.335156e-11	 5.667465e-11	 1.091903e-05
7.337521e-11	 -5.669818e-11	 1.091903e-05
6.710680e-11	 -6.122598e-11	 1.091902e-05
0	 0	 1.091902e-05
0	 0	 1.091904e-05
6.708330e-11	 6.120237e-11	 1.091902e-05
9.490438e-11	 -8.658207e-11	 1.091903e-05