# vtk DataFile Version 3.0
Unstructured Grid Example
ASCII
DATASET UNSTRUCTURED_GRID
POINTS 832 float
-1	 0	 0
-1	 0	 3.750000e-01
-1	 0	 7.500000e-01
-1	 0	 1.125000e+00
-1	 0	 1.500000e+00
-1	 0	 1.875000e+00
-1	 0	 2.250000e+00
-1	 0	 2.625000e+00
-1	 0	 3
-9.875000e-01	 0	 0
-9.875000e-01	 0	 1.500000e+00
-9.875000e-01	 0	 3
-9.875000e-01	 0	 2.250000e+00
-9.875000e-01	 0	 7.500000e-01
-9.833054e-01	 -1.819631e-01	 7.500000e-01
-9.833054e-01	 -1.819631e-01	 0
-9.833054e-01	 -1.819631e-01	 1.500000e+00
-9.833054e-01	 -1.819631e-01	 3.000000e+00
-9.833054e-01	 1.819631e-01	 2.250000e+00
-9.833054e-01	 1.819631e-01	 0
-9.833054e-01	 1.819631e-01	 1.500000e+00
-9.833054e-01	 1.819631e-01	 3.000000e+00
-9.833054e-01	 1.819631e-01	 7.500000e-01
-9.833054e-01	 -1.819631e-01	 2.250000e+00
-9.750000e-01	 0	 7.500000e-01
-9.750000e-01	 0	 1.125000e+00
-9.750000e-01	 0	 0
-9.750000e-01	 0	 3.750000e-01
-9.750000e-01	 0	 1.875000e+00
-9.750000e-01	 0	 2.625000e+00
-9.750000e-01	 0	 3
-9.750000e-01	 0	 1.500000e+00
-9.750000e-01	 0	 2.250000e+00
-9.625000e-01	 0	 1.500000e+00
-9.625000e-01	 0	 2.250000e+00
-9.625000e-01	 0	 0
-9.625000e-01	 0	 7.500000e-01
-9.625000e-01	 0	 3
-9.587227e-01	 -1.774140e-01	 0
-9.587227e-01	 -1.774140e-01	 3.000000e+00
-9.587227e-01	 -1.774140e-01	 1.500000e+00
-9.587227e-01	 1.774140e-01	 0
-9.587227e-01	 1.774140e-01	 3.000000e+00
-9.587227e-01	 1.774140e-01	 1.500000e+00
-9.587227e-01	 1.774140e-01	 7.500000e-01
-9.587227e-01	 -1.774140e-01	 7.500000e-01
-9.587227e-01	 -1.774140e-01	 2.250000e+00
-9.587227e-01	 1.774140e-01	 2.250000e+00
-9.500000e-01	 0	 0
-9.500000e-01	 0	 3.750000e-01
-9.500000e-01	 0	 1.125000e+00
-9.500000e-01	 0	 1.500000e+00
-9.500000e-01	 0	 1.875000e+00
-9.500000e-01	 0	 2.250000e+00
-9.500000e-01	 0	 2.625000e+00
-9.500000e-01	 0	 3
-9.500000e-01	 0	 7.500000e-01
-9.341401e-01	 -1.728649e-01	 1.500000e+00
-9.341401e-01	 -1.728649e-01	 0
-9.341401e-01	 -1.728649e-01	 3.000000e+00
-9.341401e-01	 1.728649e-01	 2.250000e+00
-9.341401e-01	 1.728649e-01	 0
-9.341401e-01	 1.728649e-01	 1.500000e+00
-9.341401e-01	 1.728649e-01	 3.000000e+00
-9.341401e-01	 -1.728649e-01	 7.500000e-01
-9.341401e-01	 -1.728649e-01	 2.250000e+00
-9.341401e-01	 1.728649e-01	 7.500000e-01
-9.297883e-01	 -3.680947e-01	 1.125000e+00
-9.297883e-01	 -3.680947e-01	 0
-9.297883e-01	 -3.680947e-01	 7.500000e-01
-9.297883e-01	 -3.680947e-01	 1.500000e+00
-9.297883e-01	 -3.680947e-01	 1.875000e+00
-9.297883e-01	 -3.680947e-01	 2.250000e+00
-9.297883e-01	 -3.680947e-01	 2.625000e+00
-9.297883e-01	 -3.680947e-01	 3.000000e+00
-9.297883e-01	 -3.680947e-01	 3.750000e-01
-9.297883e-01	 3.680947e-01	 3.750000e-01
-9.297883e-01	 3.680947e-01	 2.250000e+00
-9.297883e-01	 3.680947e-01	 2.625000e+00
-9.297883e-01	 3.680947e-01	 0
-9.297883e-01	 3.680947e-01	 7.500000e-01
-9.297883e-01	 3.680947e-01	 1.500000e+00
-9.297883e-01	 3.680947e-01	 1.875000e+00
-9.297883e-01	 3.680947e-01	 3.000000e+00
-9.297883e-01	 3.680947e-01	 1.125000e+00
-9.181659e-01	 3.634935e-01	 7.500000e-01
-9.181659e-01	 -3.634935e-01	 0
-9.181659e-01	 -3.634935e-01	 7.500000e-01
-9.181659e-01	 -3.634935e-01	 2.250000e+00
-9.181659e-01	 -3.634935e-01	 3
-9.181659e-01	 3.634935e-01	 0
-9.181659e-01	 3.634935e-01	 2.250000e+00
-9.181659e-01	 3.634935e-01	 3
-9.181659e-01	 -3.634935e-01	 1.500000e+00
-9.181659e-01	 3.634935e-01	 1.500000e+00
-9.065436e-01	 -3.588923e-01	 1.125000e+00
-9.065436e-01	 -3.588923e-01	 2.625000e+00
-9.065436e-01	 -3.588923e-01	 0
-9.065436e-01	 -3.588923e-01	 3.750000e-01
-9.065436e-01	 -3.588923e-01	 1.500000e+00
-9.065436e-01	 -3.588923e-01	 3
-9.065436e-01	 3.588923e-01	 2.625000e+00
-9.065436e-01	 3.588923e-01	 1.125000e+00
-9.065436e-01	 3.588923e-01	 0
-9.065436e-01	 3.588923e-01	 3.750000e-01
-9.065436e-01	 3.588923e-01	 3
-9.065436e-01	 -3.588923e-01	 7.500000e-01
-9.065436e-01	 -3.588923e-01	 1.875000e+00
-9.065436e-01	 3.588923e-01	 1.875000e+00
-9.065436e-01	 3.588923e-01	 1.500000e+00
-9.065436e-01	 -3.588923e-01	 2.250000e+00
-9.065436e-01	 3.588923e-01	 7.500000e-01
-9.065436e-01	 3.588923e-01	 2.250000e+00
-8.949212e-01	 3.542912e-01	 1.500000e+00
-8.949212e-01	 -3.542912e-01	 1.500000e+00
-8.949212e-01	 -3.542912e-01	 0
-8.949212e-01	 -3.542912e-01	 3.000000e+00
-8.949212e-01	 3.542912e-01	 0
-8.949212e-01	 3.542912e-01	 3.000000e+00
-8.949212e-01	 -3.542912e-01	 2.250000e+00
-8.949212e-01	 -3.542912e-01	 7.500000e-01
-8.949212e-01	 3.542912e-01	 2.250000e+00
-8.949212e-01	 3.542912e-01	 7.500000e-01
-8.832989e-01	 -3.496900e-01	 1.125000e+00
-8.832989e-01	 -3.496900e-01	 1.875000e+00
-8.832989e-01	 -3.496900e-01	 2.625000e+00
-8.832989e-01	 -3.496900e-01	 2.250000e+00
-8.832989e-01	 3.496900e-01	 1.125000e+00
-8.832989e-01	 -3.496900e-01	 0
-8.832989e-01	 -3.496900e-01	 3.000000e+00
-8.832989e-01	 -3.496900e-01	 3.750000e-01
-8.832989e-01	 -3.496900e-01	 7.500000e-01
-8.832989e-01	 3.496900e-01	 3.750000e-01
-8.832989e-01	 3.496900e-01	 7.500000e-01
-8.832989e-01	 3.496900e-01	 2.250000e+00
-8.832989e-01	 3.496900e-01	 2.625000e+00
-8.832989e-01	 3.496900e-01	 0
-8.832989e-01	 3.496900e-01	 1.875000e+00
-8.832989e-01	 3.496900e-01	 3.000000e+00
-8.832989e-01	 -3.496900e-01	 1.500000e+00
-8.832989e-01	 3.496900e-01	 1.500000e+00
-8.369955e-01	 -5.472098e-01	 0
-8.369955e-01	 -5.472098e-01	 7.500000e-01
-8.369955e-01	 -5.472098e-01	 1.500000e+00
-8.369955e-01	 -5.472098e-01	 2.250000e+00
-8.369955e-01	 -5.472098e-01	 3
-8.369955e-01	 5.472098e-01	 0
-8.369955e-01	 5.472098e-01	 7.500000e-01
-8.369955e-01	 5.472098e-01	 1.500000e+00
-8.369955e-01	 5.472098e-01	 2.250000e+00
-8.369955e-01	 5.472098e-01	 3
-8.160706e-01	 -5.335295e-01	 7.500000e-01
-8.160706e-01	 5.335295e-01	 7.500000e-01
-8.160706e-01	 -5.335295e-01	 1.500000e+00
-8.160706e-01	 -5.335295e-01	 2.250000e+00
-8.160706e-01	 5.335295e-01	 1.500000e+00
-8.160706e-01	 5.335295e-01	 2.250000e+00
-8.160706e-01	 -5.335295e-01	 0
-8.160706e-01	 -5.335295e-01	 3.000000e+00
-8.160706e-01	 5.335295e-01	 0
-8.160706e-01	 5.335295e-01	 3.000000e+00
-7.951457e-01	 -5.198493e-01	 7.500000e-01
-7.951457e-01	 5.198493e-01	 7.500000e-01
-7.951457e-01	 -5.198493e-01	 0
-7.951457e-01	 -5.198493e-01	 1.500000e+00
-7.951457e-01	 -5.198493e-01	 2.250000e+00
-7.951457e-01	 -5.198493e-01	 3
-7.951457e-01	 5.198493e-01	 0
-7.951457e-01	 5.198493e-01	 1.500000e+00
-7.951457e-01	 5.198493e-01	 2.250000e+00
-7.951457e-01	 5.198493e-01	 3
-7.071068e-01	 -7.071068e-01	 0
-7.071068e-01	 -7.071068e-01	 3.750000e-01
-7.071068e-01	 -7.071068e-01	 7.500000e-01
-7.071068e-01	 -7.071068e-01	 1.125000e+00
-7.071068e-01	 -7.071068e-01	 1.500000e+00
-7.071068e-01	 -7.071068e-01	 1.875000e+00
-7.071068e-01	 -7.071068e-01	 2.250000e+00
-7.071068e-01	 -7.071068e-01	 2.625000e+00
-7.071068e-01	 -7.071068e-01	 3.000000e+00
-7.071068e-01	 7.071068e-01	 0
-7.071068e-01	 7.071068e-01	 3.750000e-01
-7.071068e-01	 7.071068e-01	 7.500000e-01
-7.071068e-01	 7.071068e-01	 1.125000e+00
-7.071068e-01	 7.071068e-01	 1.500000e+00
-7.071068e-01	 7.071068e-01	 1.875000e+00
-7.071068e-01	 7.071068e-01	 2.250000e+00
-7.071068e-01	 7.071068e-01	 2.625000e+00
-7.071068e-01	 7.071068e-01	 3.000000e+00
-6.982679e-01	 -6.982679e-01	 7.500000e-01
-6.982679e-01	 6.982679e-01	 7.500000e-01
-6.982679e-01	 -6.982679e-01	 0
-6.982679e-01	 -6.982679e-01	 2.250000e+00
-6.982679e-01	 -6.982679e-01	 3.000000e+00
-6.982679e-01	 6.982679e-01	 0
-6.982679e-01	 6.982679e-01	 2.250000e+00
-6.982679e-01	 6.982679e-01	 3.000000e+00
-6.982679e-01	 -6.982679e-01	 1.500000e+00
-6.982679e-01	 6.982679e-01	 1.500000e+00
-6.894291e-01	 -6.894291e-01	 3.750000e-01
-6.894291e-01	 -6.894291e-01	 2.625000e+00
-6.894291e-01	 -6.894291e-01	 0
-6.894291e-01	 -6.894291e-01	 1.500000e+00
-6.894291e-01	 -6.894291e-01	 2.250000e+00
-6.894291e-01	 -6.894291e-01	 3.000000e+00
-6.894291e-01	 6.894291e-01	 3.750000e-01
-6.894291e-01	 6.894291e-01	 2.625000e+00
-6.894291e-01	 -6.894291e-01	 1.875000e+00
-6.894291e-01	 6.894291e-01	 1.875000e+00
-6.894291e-01	 -6.894291e-01	 7.500000e-01
-6.894291e-01	 -6.894291e-01	 1.125000e+00
-6.894291e-01	 6.894291e-01	 0
-6.894291e-01	 6.894291e-01	 1.500000e+00
-6.894291e-01	 6.894291e-01	 2.250000e+00
-6.894291e-01	 6.894291e-01	 3.000000e+00
-6.894291e-01	 6.894291e-01	 7.500000e-01
-6.894291e-01	 6.894291e-01	 1.125000e+00
-6.805903e-01	 6.805903e-01	 7.500000e-01
-6.805903e-01	 -6.805903e-01	 7.500000e-01
-6.805903e-01	 -6.805903e-01	 0
-6.805903e-01	 -6.805903e-01	 1.500000e+00
-6.805903e-01	 -6.805903e-01	 3.000000e+00
-6.805903e-01	 6.805903e-01	 0
-6.805903e-01	 6.805903e-01	 1.500000e+00
-6.805903e-01	 6.805903e-01	 3.000000e+00
-6.805903e-01	 6.805903e-01	 2.250000e+00
-6.805903e-01	 -6.805903e-01	 2.250000e+00
-6.717514e-01	 -6.717514e-01	 2.625000e+00
-6.717514e-01	 6.717514e-01	 2.625000e+00
-6.717514e-01	 -6.717514e-01	 0
-6.717514e-01	 -6.717514e-01	 3.750000e-01
-6.717514e-01	 -6.717514e-01	 7.500000e-01
-6.717514e-01	 -6.717514e-01	 1.125000e+00
-6.717514e-01	 -6.717514e-01	 1.875000e+00
-6.717514e-01	 -6.717514e-01	 3.000000e+00
-6.717514e-01	 -6.717514e-01	 2.250000e+00
-6.717514e-01	 6.717514e-01	 1.500000e+00
-6.717514e-01	 6.717514e-01	 0
-6.717514e-01	 6.717514e-01	 3.750000e-01
-6.717514e-01	 6.717514e-01	 7.500000e-01
-6.717514e-01	 6.717514e-01	 1.125000e+00
-6.717514e-01	 6.717514e-01	 1.875000e+00
-6.717514e-01	 6.717514e-01	 3.000000e+00
-6.717514e-01	 -6.717514e-01	 1.500000e+00
-6.717514e-01	 6.717514e-01	 2.250000e+00
-5.472098e-01	 -8.369955e-01	 0
-5.472098e-01	 -8.369955e-01	 7.500000e-01
-5.472098e-01	 -8.369955e-01	 1.500000e+00
-5.472098e-01	 -8.369955e-01	 2.250000e+00
-5.472098e-01	 -8.369955e-01	 3
-5.472098e-01	 8.369955e-01	 0
-5.472098e-01	 8.369955e-01	 7.500000e-01
-5.472098e-01	 8.369955e-01	 1.500000e+00
-5.472098e-01	 8.369955e-01	 2.250000e+00
-5.472098e-01	 8.369955e-01	 3
-5.335295e-01	 -8.160706e-01	 1.500000e+00
-5.335295e-01	 -8.160706e-01	 2.250000e+00
-5.335295e-01	 8.160706e-01	 0
-5.335295e-01	 8.160706e-01	 3.000000e+00
[...]
POINT_DATA 832
VECTORS displacement float
0	 0	 -5.477970e-08
-2.472126e-07	 3.879391e-14	 -3.533427e-08
-3.296831e-07	 7.113280e-14	 -4.408892e-14
-2.472129e-07	 9.048795e-14	 3.533419e-08
-4.460146e-13	 9.609876e-14	 5.477963e-08
2.472120e-07	 8.604261e-14	 3.533424e-08
3.296824e-07	 6.479441e-14	 4.412917e-14
2.472123e-07	 3.434392e-14	 -3.533415e-08
0	 0	 -5.477957e-08
0	 0	 -4.414708e-08
-4.468932e-13	 1.064843e-13	 4.414702e-08
0	 0	 -4.414696e-08
3.307831e-07	 7.228175e-14	 3.981280e-14
-3.307838e-07	 7.833142e-14	 -3.977355e-14
-3.148784e-07	 -1.016086e-08	 -2.619811e-14
0	 0	 -5.177840e-08
-2.652691e-13	 1.056692e-13	 5.177836e-08
0	 0	 -5.177832e-08
3.148779e-07	 -1.016085e-08	 5.316978e-14
0	 0	 -5.177843e-08
-5.316537e-13	 1.167343e-13	 5.177836e-08
0	 0	 -5.177828e-08
-3.148786e-07	 1.016102e-08	 -5.311669e-14
3.148781e-07	 1.016100e-08	 2.622471e-14
-3.316651e-07	 8.550539e-14	 -3.547215e-14
-2.484668e-07	 1.095212e-13	 2.403968e-08
0	 0	 -3.353494e-08
-2.484665e-07	 4.655326e-14	 -2.403975e-08
2.484659e-07	 1.055049e-13	 2.403972e-08
2.484662e-07	 4.253118e-14	 -2.403966e-08
0	 0	 -3.353484e-08
-4.474946e-13	 1.168333e-13	 3.353489e-08
3.316645e-07	 7.974225e-14	 3.551042e-14
-4.479478e-13	 1.270834e-13	 2.289956e-08
3.325153e-07	 8.712899e-14	 3.120086e-14
0	 0	 -2.289960e-08
-3.325159e-07	 9.261320e-14	 -3.116357e-14
0	 0	 -2.289951e-08
0	 0	 -3.208262e-08
0	 0	 -3.208256e-08
-2.708348e-13	 1.336651e-13	 3.208259e-08
0	 0	 -3.208265e-08
0	 0	 -3.208253e-08
-5.319085e-13	 1.194099e-13	 3.208259e-08
-3.170126e-07	 5.350677e-09	 -4.267128e-14
-3.170124e-07	 -5.350492e-09	 -2.156173e-14
3.170120e-07	 5.350681e-09	 2.158736e-14
3.170118e-07	 -5.350508e-09	 4.272229e-14
0	 0	 -1.220256e-08
-2.491495e-07	 5.425783e-14	 -1.269326e-08
-2.491498e-07	 1.284174e-13	 1.269321e-08
-4.480828e-13	 1.374008e-13	 1.220252e-08
2.491489e-07	 1.248233e-13	 1.269324e-08
3.331277e-07	 9.456525e-14	 2.687345e-14
2.491492e-07	 5.065691e-14	 -1.269319e-08
0	 0	 -1.220248e-08
-3.331283e-07	 9.976660e-14	 -2.683715e-14
-2.760016e-13	 1.619561e-13	 1.233050e-08
0	 0	 -1.233053e-08
0	 0	 -1.233048e-08
3.186504e-07	 -3.902781e-10	 3.227519e-14
0	 0	 -1.233055e-08
-5.309431e-13	 1.218665e-13	 1.233050e-08
0	 0	 -1.233046e-08
-3.186510e-07	 -3.902444e-10	 -1.692795e-14
3.186506e-07	 3.904735e-10	 1.695259e-14
-3.186512e-07	 3.904505e-10	 -3.222627e-14
-1.880618e-07	 -5.786589e-09	 2.538553e-08
0	 0	 -3.954168e-08
-2.530211e-07	 -1.042892e-09	 -1.208970e-15
-3.171851e-14	 1.710857e-13	 3.954168e-08
1.880617e-07	 5.786904e-09	 2.538553e-08
2.530210e-07	 1.043134e-09	 1.220034e-15
1.880617e-07	 5.786812e-09	 -2.538553e-08
0	 0	 -3.954167e-08
-1.880618e-07	 -5.786682e-09	 -2.538553e-08
-1.880619e-07	 5.786795e-09	 -2.538559e-08
2.530207e-07	 -1.042938e-09	 4.823814e-14
1.880616e-07	 -5.786706e-09	 -2.538547e-08
0	 0	 -3.954174e-08
-2.530214e-07	 1.043100e-09	 -4.816874e-14
-4.800559e-13	 1.149214e-13	 3.954168e-08
1.880613e-07	 -5.786643e-09	 2.538556e-08
0	 0	 -3.954161e-08
-1.880622e-07	 5.786859e-09	 2.538550e-08
-2.555197e-07	 -3.159256e-09	 -4.342996e-14
0	 0	 -3.190835e-08
-2.555194e-07	 3.159471e-09	 -1.530665e-15
2.555194e-07	 -3.159207e-09	 1.541770e-15
0	 0	 -3.190835e-08
0	 0	 -3.190841e-08
2.555190e-07	 3.159410e-09	 4.349827e-14
0	 0	 -3.190829e-08
-3.769141e-14	 1.866148e-13	 3.190835e-08
-4.835711e-13	 1.085210e-13	 3.190835e-08
-1.915290e-07	 5.853288e-10	 1.731189e-08
1.915290e-07	 -5.850655e-10	 -1.731189e-08
0	 0	 -2.428621e-08
-1.915290e-07	 5.852198e-10	 -1.731190e-08
-4.371372e-14	 2.020664e-13	 2.428621e-08
0	 0	 -2.428621e-08
1.915288e-07	 5.851785e-10	 -1.731184e-08
-1.915294e-07	 -5.850428e-10	 1.731187e-08
0	 0	 -2.428626e-08
-1.915292e-07	 -5.850990e-10	 -1.731194e-08
0	 0	 -2.428615e-08
-2.578870e-07	 7.411794e-09	 -1.847752e-15
1.915289e-07	 -5.849565e-10	 1.731189e-08
1.915285e-07	 5.852347e-10	 1.731191e-08
-4.868345e-13	 1.020501e-13	 2.428621e-08
2.578869e-07	 -7.411508e-09	 1.858907e-15
-2.578873e-07	 -7.411573e-09	 -3.870348e-14
2.578866e-07	 7.411717e-09	 3.877069e-14
-4.899637e-13	 9.561090e-14	 1.664743e-08
-4.970272e-14	 2.173685e-13	 1.664743e-08
0	 0	 -1.664743e-08
0	 0	 -1.664742e-08
0	 0	 -1.664747e-08
0	 0	 -1.664738e-08
2.602288e-07	 -1.162632e-08	 2.174385e-15
-2.602289e-07	 1.162663e-08	 -2.163183e-15
2.602285e-07	 1.162654e-08	 3.403593e-14
-2.602292e-07	 -1.162640e-08	 -3.396981e-14
-1.946508e-07	 7.090449e-09	 9.197315e-09
1.946507e-07	 -7.090020e-09	 9.197318e-09
1.946507e-07	 -7.090146e-09	 -9.197313e-09
2.624472e-07	 -1.593802e-08	 2.493489e-15
-1.946512e-07	 -7.090147e-09	 9.197300e-09
0	 0	 -8.966236e-09
0	 0	 -8.966229e-09
-1.946507e-07	 7.090323e-09	 -9.197319e-09
-2.624473e-07	 1.593835e-08	 -2.482246e-15
-1.946509e-07	 -7.090196e-09	 -9.197355e-09
-2.624476e-07	 -1.593811e-08	 -2.921818e-14
2.624469e-07	 1.593824e-08	 2.928319e-14
1.946505e-07	 7.090265e-09	 -9.197277e-09
0	 0	 -8.966274e-09
1.946503e-07	 7.090314e-09	 9.197332e-09
0	 0	 -8.966191e-09
-5.580828e-14	 2.327296e-13	 8.966232e-09
-4.928347e-13	 8.900956e-14	 8.966232e-09
0	 0	 -2.196025e-08
-1.751466e-07	 2.910733e-08	 2.299824e-14
1.611056e-13	 2.795522e-13	 2.196028e-08
1.751468e-07	 -2.910693e-08	 -2.300380e-14
0	 0	 -2.196031e-08
0	 0	 -2.196032e-08
-1.751469e-07	 -2.910709e-08	 -3.170421e-14
-3.357594e-13	 4.958367e-14	 2.196028e-08
1.751464e-07	 2.910716e-08	 3.179047e-14
0	 0	 -2.196023e-08
-1.819787e-07	 3.861218e-08	 1.749913e-14
-1.819790e-07	 -3.861194e-08	 -2.577938e-14
1.498744e-13	 2.972206e-13	 1.368913e-08
1.819789e-07	 -3.861176e-08	 -1.750332e-14
-3.495997e-13	 2.916057e-14	 1.368913e-08
1.819785e-07	 3.861198e-08	 2.586404e-14
0	 0	 -1.368911e-08
0	 0	 -1.368915e-08
0	 0	 -1.368917e-08
0	 0	 -1.368909e-08
-1.887174e-07	 4.832445e-08	 1.200168e-14
-1.887178e-07	 -4.832421e-08	 -1.985524e-14
0	 0	 -5.395826e-09
1.378650e-13	 3.145525e-13	 5.395843e-09
1.887176e-07	 -4.832400e-08	 -1.200452e-14
0	 0	 -5.395860e-09
0	 0	 -5.395871e-09
-3.630374e-13	 8.261557e-15	 5.395843e-09
1.887172e-07	 4.832422e-08	 1.993827e-14
0	 0	 -5.395814e-09
0	 0	 5.480340e-14
-6.587283e-08	 6.587307e-08	 4.970696e-14
-9.503878e-08	 9.503921e-08	 3.761047e-14
-6.587270e-08	 6.587327e-08	 1.915930e-14
2.429797e-13	 3.605091e-13	 -1.593198e-15
6.587315e-08	 -6.587260e-08	 -2.118016e-14
9.503912e-08	 -9.503870e-08	 -3.762989e-14
6.587302e-08	 -6.587280e-08	 -4.771963e-14
0	 0	 -5.164520e-14
0	 0	 -8.799571e-15
-6.587299e-08	 -6.587296e-08	 -7.916883e-15
-9.503906e-08	 -9.503902e-08	 -5.865026e-15
-6.587307e-08	 -6.587302e-08	 -2.844694e-15
-1.483905e-13	 -9.776582e-14	 5.298980e-16
6.587279e-08	 6.587284e-08	 3.519389e-15
9.503885e-08	 9.503888e-08	 5.966732e-15
6.587287e-08	 6.587289e-08	 7.442370e-15
0	 0	 7.936801e-15
-9.972693e-08	 9.972737e-08	 3.348219e-14
-9.972722e-08	 -9.972718e-08	 -5.516839e-15
0	 0	 4.865341e-14
9.972727e-08	 -9.972686e-08	 -3.350029e-14
0	 0	 -4.610621e-14
0	 0	 -8.206072e-15
9.972699e-08	 9.972702e-08	 5.618006e-15
0	 0	 7.538420e-15
2.410696e-13	 3.636765e-13	 -1.289014e-15
-1.599031e-13	 -1.092161e-13	 4.328784e-16
-7.285925e-08	 7.285949e-08	 3.928021e-14
7.285943e-08	 -7.285921e-08	 -3.788241e-14
0	 0	 4.252193e-14
2.389700e-13	 3.666493e-13	 -9.841132e-16
1.044204e-07	 -1.044200e-07	 -2.938425e-14
0	 0	 -4.058716e-14
-7.285941e-08	 -7.285938e-08	 -6.999392e-15
7.285927e-08	 7.285929e-08	 6.671685e-15
7.285956e-08	 -7.285901e-08	 -1.669233e-14
7.285918e-08	 7.285923e-08	 3.097021e-15
-1.044201e-07	 1.044205e-07	 2.936747e-14
-7.285911e-08	 7.285969e-08	 1.526102e-14
0	 0	 -7.610482e-15
-1.713853e-13	 -1.206324e-13	 3.344989e-16
1.044201e-07	 1.044202e-07	 5.268765e-15
0	 0	 7.140652e-15
-1.044204e-07	 -1.044203e-07	 -5.168130e-15
-7.285950e-08	 -7.285945e-08	 -2.569112e-15
-1.090742e-07	 -1.090742e-07	 -4.819124e-15
-1.090739e-07	 1.090744e-07	 2.524800e-14
0	 0	 3.638298e-14
2.368088e-13	 3.695280e-13	 -6.784459e-16
0	 0	 -3.506216e-14
0	 0	 -7.013922e-15
-1.827649e-13	 -1.319517e-13	 2.355929e-16
0	 0	 6.742960e-15
1.090740e-07	 1.090740e-07	 4.919222e-15
1.090743e-07	 -1.090739e-07	 -2.526346e-14
7.984792e-08	 -7.984769e-08	 -2.802469e-14
7.984775e-08	 7.984777e-08	 5.899744e-15
0	 0	 3.021780e-14
-7.984773e-08	 7.984798e-08	 2.882964e-14
-1.137658e-07	 1.137662e-07	 2.111069e-14
-7.984761e-08	 7.984818e-08	 1.135523e-14
7.984804e-08	 -7.984749e-08	 -1.219368e-14
0	 0	 -2.951279e-14
1.137661e-07	 -1.137657e-07	 -2.112482e-14
-1.942057e-13	 -1.433256e-13	 1.370275e-16
0	 0	 -6.417285e-15
-7.984790e-08	 -7.984788e-08	 -6.079055e-15
-1.137661e-07	 -1.137660e-07	 -4.469843e-15
-7.984801e-08	 -7.984796e-08	 -2.293498e-15
7.984765e-08	 7.984769e-08	 2.673013e-15
0	 0	 6.344515e-15
2.344134e-13	 3.721936e-13	 -3.718610e-16
1.137658e-07	 1.137658e-07	 4.569399e-15
0	 0	 2.196034e-08
-2.910696e-08	 1.751469e-07	 4.090429e-14
2.305303e-13	 3.642147e-13	 -2.196028e-08
2.910728e-08	 -1.751464e-07	 -4.093063e-14
0	 0	 2.196022e-08
0	 0	 2.196031e-08
-2.910713e-08	 -1.751469e-07	 2.043740e-14
-2.479640e-15	 -2.841598e-13	 -2.196028e-08
2.910713e-08	 1.751465e-07	 -2.032384e-14
0	 0	 2.196025e-08
2.382403e-13	 3.597798e-13	 -1.368913e-08
3.861212e-08	 -1.819785e-07	 -3.266767e-14
0	 0	 1.368915e-08
0	 0	 1.368911e-08
-2.269940e-14	 -2.976785e-13	 -1.368913e-08
3.861195e-08	 1.819786e-07	 -1.579387e-14
-3.861179e-08	 1.819791e-07	 3.264466e-14
0	 0	 1.368918e-08
0	 0	 1.368909e-08
-3.861198e-08	 -1.819790e-07	 1.590731e-14
-4.832425e-08	 -1.887177e-07	 1.138045e-14
-4.832404e-08	 1.887178e-07	 2.438546e-14
0	 0	 5.395878e-09
2.454487e-13	 3.544531e-13	 -5.395843e-09
4.832439e-08	 -1.887173e-07	 -2.440513e-14
0	 0	 5.395809e-09
0	 0	 5.395858e-09
-4.339071e-14	 -3.107910e-13	 -5.395842e-09
4.832419e-08	 1.887173e-07	 -1.126714e-14
0	 0	 5.395826e-09
5.786904e-09	 1.880620e-07	 -2.538552e-08
5.786803e-09	 -1.880621e-07	 -2.538551e-08
0	 0	 3.954172e-08
1.043139e-09	 2.530213e-07	 3.082682e-14
1.591593e-13	 2.481693e-13	 -3.954168e-08
-5.786609e-09	 -1.880615e-07	 -2.538555e-08
0	 0	 3.954164e-08
0	 0	 3.954173e-08
1.043054e-09	 -2.530214e-07	 3.842833e-14
6.124093e-14	 -4.256287e-13	 -3.954167e-08
-5.786686e-09	 1.880613e-07	 -2.538555e-08
-1.042968e-09	 2.530208e-07	 -3.830634e-14
-5.786721e-09	 1.880616e-07	 2.538548e-08
0	 0	 3.954162e-08
5.786818e-09	 1.880619e-07	 2.538557e-08
-1.042914e-09	 -2.530209e-07	 -3.085368e-14
-5.786696e-09	 -1.880617e-07	 2.538549e-08
5.786769e-09	 -1.880619e-07	 2.538558e-08
1.706104e-13	 2.442555e-13	 -3.190835e-08
5.498924e-14	 -4.289656e-13	 -3.190835e-08
-3.159204e-09	 2.555196e-07	 2.802139e-14
0	 0	 3.190839e-08
3.159446e-09	 -2.555192e-07	 -2.804625e-14
0	 0	 3.190831e-08
0	 0	 3.190839e-08
-3.159301e-09	 -2.555197e-07	 3.437041e-14
3.159379e-09	 2.555191e-07	 -3.424799e-14
0	 0	 3.190830e-08
7.411766e-09	 -2.578868e-07	 -2.524644e-14
7.411687e-09	 2.578867e-07	 -3.020151e-14
-5.850972e-10	 -1.915294e-07	 -1.731188e-08
5.851631e-10	 1.915288e-07	 1.731185e-08
0	 0	 2.428625e-08
-5.850631e-10	 1.915291e-07	 1.731193e-08
0	 0	 2.428617e-08
1.819571e-13	 2.402125e-13	 -2.428621e-08
0	 0	 2.428625e-08
-5.851245e-10	 -1.915291e-07	 1.731193e-08
4.866186e-14	 -4.320719e-13	 -2.428621e-08
0	 0	 2.428616e-08
-5.849645e-10	 1.915292e-07	 -1.731188e-08
5.853014e-10	 -1.915288e-07	 -1.731191e-08
-7.411509e-09	 2.578872e-07	 2.522358e-14
-7.411618e-09	 -2.578873e-07	 3.032436e-14
5.851904e-10	 1.915286e-07	 -1.731191e-08
5.852027e-10	 -1.915289e-07	 1.731186e-08
1.931681e-13	 2.361495e-13	 -1.664743e-08
1.162660e-08	 -2.602287e-07	 -2.244481e-14
1.162651e-08	 2.602285e-07	 -2.614854e-14
0	 0	 1.664746e-08
0	 0	 1.664739e-08
4.236496e-14	 -4.350547e-13	 -1.664742e-08
0	 0	 1.664746e-08
0	 0	 1.664740e-08
-1.162633e-08	 2.602291e-07	 2.242394e-14
-1.162645e-08	 -2.602292e-07	 2.627183e-14
-7.090036e-09	 1.946509e-07	 -9.197306e-09
0	 0	 8.966261e-09
7.090414e-09	 -1.946505e-07	 -9.197328e-09
0	 0	 8.966205e-09
2.043816e-13	 2.318901e-13	 -8.966233e-09
0	 0	 8.966263e-09
0	 0	 8.966201e-09
-7.090200e-09	 -1.946511e-07	 -9.197303e-09
7.090269e-09	 1.946503e-07	 -9.197328e-09
7.090249e-09	 1.946505e-07	 9.197286e-09
-7.090147e-09	 1.946508e-07	 9.197343e-09
-1.593802e-08	 2.624474e-07	 1.961364e-14
1.593831e-08	 -2.624471e-07	 -1.963248e-14
7.090303e-09	 -1.946506e-07	 9.197291e-09
3.592083e-14	 -4.377951e-13	 -8.966232e-09
-7.090220e-09	 -1.946509e-07	 9.197345e-09
1.593821e-08	 2.624469e-07	 -2.207939e-14
-1.593816e-08	 -2.624476e-07	 2.220310e-14
1.016102e-08	 3.148783e-07	 1.476639e-14
1.016097e-08	 -3.148786e-07	 4.598956e-14
0	 0	 5.177838e-08
1.048053e-13	 6.477352e-14	 -5.177836e-08
0	 0	 5.177834e-08
0	 0	 5.177842e-08
6.527217e-14	 -4.798370e-13	 -5.177836e-08
0	 0	 5.177829e-08
-1.016087e-08	 -3.148782e-07	 -1.478854e-14
-1.016088e-08	 3.148779e-07	 -4.586040e-14
5.350692e-09	 3.170123e-07	 1.314195e-14
0	 0	 3.208261e-08
0	 0	 3.208257e-08
5.350631e-09	 -3.170125e-07	 3.669825e-14
-5.350537e-09	 3.170118e-07	 -3.656728e-14
0	 0	 3.208264e-08
0	 0	 3.208253e-08
-5.350509e-09	 -3.170122e-07	 -1.316048e-14
6.660227e-14	 -4.802213e-13	 -3.208258e-08
1.291954e-13	 6.045044e-14	 -3.208259e-08
6.773500e-14	 -4.795212e-13	 -1.233050e-08
0	 0	 1.233052e-08
1.537793e-13	 5.611926e-14	 -1.233050e-08
0	 0	 1.233049e-08
0	 0	 1.233054e-08
0	 0	 1.233046e-08
-3.902637e-10	 -3.186508e-07	 -1.152547e-14
3.904812e-10	 3.186509e-07	 1.151058e-14
3.904042e-10	 -3.186511e-07	 2.740801e-14
-3.903084e-10	 3.186504e-07	 -2.727522e-14
0	 0	 5.477964e-08
4.125436e-14	 2.472124e-07	 3.533421e-08
7.408813e-14	 3.296827e-07	 -1.052125e-15
9.072282e-14	 2.472124e-07	 -3.533421e-08
9.201352e-14	 -1.098994e-13	 -5.477964e-08
7.821004e-14	 -2.472126e-07	 -3.533421e-08
5.606102e-14	 -3.296828e-07	 1.036249e-15
2.873844e-14	 -2.472125e-07	 3.533421e-08
0	 0	 5.477964e-08
0	 0	 4.414702e-08
1.034164e-13	 -1.102307e-13	 -4.414702e-08
0	 0	 4.414702e-08
6.354419e-14	 -3.307835e-07	 -1.690699e-17
8.273691e-14	 3.307834e-07	 2.680220e-18
9.135356e-14	 3.316648e-07	 1.047826e-15
1.127145e-13	 2.484662e-07	 -2.403970e-08
0	 0	 3.353490e-08
5.087541e-14	 2.484663e-07	 2.403970e-08
9.847286e-14	 -2.484665e-07	 -2.403970e-08
3.662912e-14	 -2.484664e-07	 2.403970e-08
0	 0	 3.353489e-08
1.147760e-13	 -1.103991e-13	 -3.353489e-08
7.099828e-14	 -3.316649e-07	 -1.060415e-15
1.260265e-13	 -1.104952e-13	 -2.289956e-08
7.838009e-14	 -3.325157e-07	 -2.106964e-15
0	 0	 2.289956e-08
9.988805e-14	 3.325155e-07	 2.096008e-15
0	 0	 2.289955e-08
0	 0	 1.220252e-08
6.043073e-14	 2.491493e-07	 1.269323e-08
1.345489e-13	 2.491492e-07	 -1.269322e-08
1.373531e-13	 -1.104011e-13	 -1.220252e-08
1.185806e-13	 -2.491495e-07	 -1.269322e-08
8.581025e-14	 -3.331281e-07	 -3.162109e-15
4.445618e-14	 -2.491494e-07	 1.269322e-08
0	 0	 1.220251e-08
1.084819e-13	 3.331279e-07	 3.152808e-15
5.206220e-14	 -3.331283e-07	 2.483843e-14
0	 0	 1.220255e-08
2.706896e-14	 -2.491495e-07	 1.269326e-08
7.150416e-14	 -2.491497e-07	 -1.269321e-08
8.231919e-14	 -4.132718e-13	 -1.220252e-08
8.013852e-14	 2.491489e-07	 -1.269324e-08
6.431472e-14	 3.331277e-07	 -2.469676e-14
3.570837e-14	 2.491492e-07	 1.269319e-08
0	 0	 1.220248e-08
0	 0	 2.289960e-08
4.602944e-14	 -3.325159e-07	 2.883383e-14
0	 0	 2.289951e-08
7.370111e-14	 -4.131374e-13	 -2.289955e-08
5.816210e-14	 3.325153e-07	 -2.869352e-14
6.514192e-14	 -4.127259e-13	 -3.353489e-08
5.205050e-14	 3.316645e-07	 -3.267457e-14
0	 0	 3.353494e-08
2.057842e-14	 -2.484665e-07	 2.403974e-08
6.406332e-14	 2.484659e-07	 -2.403972e-08
2.898327e-14	 2.484662e-07	 2.403966e-08
0	 0	 3.353484e-08
4.003885e-14	 -3.316651e-07	 3.281352e-14
5.566245e-14	 -2.484667e-07	 -2.403968e-08
3.398471e-14	 -3.307837e-07	 3.678674e-14
4.587572e-14	 3.307831e-07	 -3.664914e-14
0	 0	 4.414707e-08
5.649310e-14	 -4.121777e-13	 -4.414702e-08
0	 0	 4.414696e-08
0	 0	 5.477969e-08
1.403202e-14	 -2.472126e-07	 3.533426e-08
2.790460e-14	 -3.296830e-07	 4.077208e-14
3.968900e-14	 -2.472128e-07	 -3.533419e-08
4.781103e-14	 -4.113867e-13	 -5.477963e-08
4.786080e-14	 2.472121e-07	 -3.533423e-08
3.967995e-14	 3.296824e-07	 -4.063586e-14
2.220672e-14	 2.472123e-07	 3.533416e-08
0	 0	 5.477957e-08
-3.902572e-10	 3.186507e-07	 -4.073954e-15
3.904413e-10	 -3.186510e-07	 4.074098e-15
-3.902959e-10	 -3.186510e-07	 1.800083e-14
3.904422e-10	 3.186506e-07	 -1.785249e-14
0	 0	 1.233050e-08
0	 0	 1.233051e-08
0	 0	 1.233053e-08
1.034960e-13	 -2.684759e-13	 -1.233050e-08
0	 0	 1.233048e-08
1.301599e-13	 -2.222954e-13	 -1.233050e-08
7.956692e-14	 -2.640652e-13	 -3.208258e-08
1.214555e-13	 -2.246621e-13	 -3.208259e-08
5.350652e-09	 3.170120e-07	 -2.256360e-14
0	 0	 3.208257e-08
0	 0	 3.208260e-08
-5.350493e-09	 3.170121e-07	 -8.688492e-15
5.350665e-09	 -3.170124e-07	 8.686317e-15
0	 0	 3.208262e-08
0	 0	 3.208255e-08
-5.350540e-09	 -3.170124e-07	 2.270926e-14
1.016100e-08	 -3.148784e-07	 1.330383e-14
1.016098e-08	 3.148780e-07	 -2.727610e-14
0	 0	 5.177834e-08
1.126319e-13	 -2.261019e-13	 -5.177836e-08
0	 0	 5.177838e-08
0	 0	 5.177840e-08
5.589248e-14	 -2.592981e-13	 -5.177836e-08
0	 0	 5.177832e-08
-1.016084e-08	 3.148781e-07	 -1.330832e-14
-1.016090e-08	 -3.148784e-07	 2.741907e-14
1.593828e-08	 2.624471e-07	 -7.307232e-15
-1.593811e-08	 -2.624474e-07	 7.321924e-15
7.090290e-09	 1.946506e-07	 9.197306e-09
1.190147e-13	 -2.412951e-13	 -8.966232e-09
7.090287e-09	 -1.946507e-07	 9.197325e-09
1.593828e-08	 -2.624473e-07	 6.794242e-15
-1.593805e-08	 2.624472e-07	 -6.643058e-15
-7.090161e-09	 1.946507e-07	 9.197307e-09
7.090355e-09	 1.946505e-07	 -9.197320e-09
-7.090134e-09	 -1.946509e-07	 -9.197312e-09
-7.090198e-09	 -1.946508e-07	 9.197326e-09
0	 0	 8.966222e-09
0	 0	 8.966242e-09
1.640606e-13	 -8.154878e-14	 -8.966232e-09
0	 0	 8.966242e-09
-7.090073e-09	 1.946506e-07	 -9.197320e-09
0	 0	 8.966223e-09
7.090375e-09	 -1.946508e-07	 -9.197312e-09
1.162657e-08	 2.602287e-07	 -9.894934e-15
1.162657e-08	 -2.602289e-07	 6.948922e-15
0	 0	 1.664744e-08
0	 0	 1.664742e-08
1.211014e-13	 -2.404268e-13	 -1.664742e-08
0	 0	 1.664741e-08
0	 0	 1.664744e-08
-1.162640e-08	 -2.602290e-07	 9.908957e-15
-1.162635e-08	 2.602288e-07	 -6.799028e-15
1.509760e-13	 -7.630976e-14	 -1.664743e-08
-5.850811e-10	 1.915290e-07	 1.731188e-08
7.411750e-09	 2.578868e-07	 -1.246934e-14
-5.850367e-10	 -1.915292e-07	 -1.731189e-08
7.411735e-09	 -2.578870e-07	 7.105790e-15
-5.850067e-10	 1.915289e-07	 -1.731190e-08
5.852606e-10	 -1.915290e-07	 -1.731189e-08
0	 0	 2.428619e-08
5.851989e-10	 1.915289e-07	 1.731188e-08
1.230649e-13	 -2.393334e-13	 -2.428621e-08
0	 0	 2.428622e-08
1.379440e-13	 -7.116119e-14	 -2.428621e-08
0	 0	 2.428622e-08
5.851862e-10	 -1.915290e-07	 1.731190e-08
0	 0	 2.428620e-08
5.852661e-10	 1.915288e-07	 -1.731190e-08
-5.851039e-10	 -1.915291e-07	 1.731191e-08
-7.411576e-09	 -2.578871e-07	 1.248270e-14
-7.411540e-09	 2.578869e-07	 -6.957170e-15
0	 0	 3.190833e-08
3.159438e-09	 2.555192e-07	 -1.503952e-14
-3.159261e-09	 -2.555195e-07	 1.505222e-14
0	 0	 3.190837e-08
0	 0	 3.190836e-08
-3.159238e-09	 2.555193e-07	 -7.113554e-15
0	 0	 3.190834e-08
3.159415e-09	 -2.555194e-07	 7.260890e-15
1.250414e-13	 -2.381499e-13	 -3.190835e-08
1.247821e-13	 -6.597698e-14	 -3.190835e-08
-5.786690e-09	 1.880616e-07	 2.538551e-08
-5.786712e-09	 -1.880618e-07	 2.538554e-08
1.043103e-09	 2.530210e-07	 -7.266169e-15
5.786797e-09	 1.880617e-07	 2.538552e-08
0	 0	 3.954165e-08
-1.042913e-09	 2.530209e-07	 -1.762134e-14
1.269556e-13	 -2.367569e-13	 -3.954167e-08
5.786858e-09	 -1.880620e-07	 -2.538552e-08
1.043092e-09	 -2.530212e-07	 1.763338e-14
5.786788e-09	 -1.880618e-07	 2.538555e-08
0	 0	 3.954170e-08
0	 0	 3.954169e-08
-1.042946e-09	 -2.530211e-07	 7.412209e-15
1.115595e-13	 -6.082837e-14	 -3.954167e-08
5.786857e-09	 1.880617e-07	 -2.538553e-08
0	 0	 3.954166e-08
-5.786621e-09	 1.880615e-07	 -2.538554e-08
-5.786652e-09	 -1.880618e-07	 -2.538553e-08
0	 0	 5.395831e-09
7.464678e-14	 -1.807579e-13	 -5.395842e-09
-4.832419e-08	 -1.887176e-07	 7.175282e-15
0	 0	 5.395852e-09
0	 0	 5.395836e-09
2.351946e-13	 8.479132e-14	 -5.395843e-09
-4.832404e-08	 1.887176e-07	 5.121518e-15
0	 0	 5.395850e-09