# vtk DataFile Version 3.0
Unstructured Grid Example
ASCII
DATASET UNSTRUCTURED_GRID
POINTS 832 float
-1	 0	 0
-1	 0	 3.750000e-01
-1	 0	 7.500000e-01
-1	 0	 1.125000e+00
-1	 0	 1.500000e+00
-1	 0	 1.875000e+00
-1	 0	 2.250000e+00
-1	 0	 2.625000e+00
-1	 0	 3
-9.875000e-01	 0	 0
-9.875000e-01	 0	 1.500000e+00
-9.875000e-01	 0	 3
-9.875000e-01	 0	 2.250000e+00
-9.875000e-01	 0	 7.500000e-01
-9.833054e-01	 -1.819631e-01	 7.500000e-01
-9.833054e-01	 -1.819631e-01	 0
-9.833054e-01	 -1.819631e-01	 1.500000e+00
-9.833054e-01	 -1.819631e-01	 3.000000e+00
-9.833054e-01	 1.819631e-01	 2.250000e+00
-9.833054e-01	 1.819631e-01	 0
-9.833054e-01	 1.819631e-01	 1.500000e+00
-9.833054e-01	 1.819631e-01	 3.000000e+00
-9.833054e-01	 1.819631e-01	 7.500000e-01
-9.833054e-01	 -1.819631e-01	 2.250000e+00
-9.750000e-01	 0	 7.500000e-01
-9.750000e-01	 0	 1.125000e+00
-9.750000e-01	 0	 0
-9.750000e-01	 0	 3.750000e-01
-9.750000e-01	 0	 1.875000e+00
-9.750000e-01	 0	 2.625000e+00
-9.750000e-01	 0	 3
-9.750000e-01	 0	 1.500000e+00
-9.750000e-01	 0	 2.250000e+00
-9.625000e-01	 0	 1.500000e+00
-9.625000e-01	 0	 2.250000e+00
-9.625000e-01	 0	 0
-9.625000e-01	 0	 7.500000e-01
-9.625000e-01	 0	 3
-9.587227e-01	 -1.774140e-01	 0
-9.587227e-01	 -1.774140e-01	 3.000000e+00
-9.587227e-01	 -1.774140e-01	 1.500000e+00
-9.587227e-01	 1.774140e-01	 0
-9.587227e-01	 1.774140e-01	 3.000000e+00
-9.587227e-01	 1.774140e-01	 1.500000e+00
-9.587227e-01	 1.774140e-01	 7.500000e-01
-9.587227e-01	 -1.774140e-01	 7.500000e-01
-9.587227e-01	 -1.774140e-01	 2.250000e+00
-9.587227e-01	 1.774140e-01	 2.250000e+00
-9.500000e-01	 0	 0
-9.500000e-01	 0	 3.750000e-01
-9.500000e-01	 0	 1.125000e+00
-9.500000e-01	 0	 1.500000e+00
-9.500000e-01	 0	 1.875000e+00
-9.500000e-01	 0	 2.250000e+00
-9.500000e-01	 0	 2.625000e+00
-9.500000e-01	 0	 3
-9.500000e-01	 0	 7.500000e-01
-9.341401e-01	 -1.728649e-01	 1.500000e+00
-9.341401e-01	 -1.728649e-01	 0
-9.341401e-01	 -1.728649e-01	 3.000000e+00
-9.341401e-01	 1.728649e-01	 2.250000e+00
-9.341401e-01	 1.728649e-01	 0
-9.341401e-01	 1.728649e-01	 1.500000e+00
-9.341401e-01	 1.728649e-01	 3.000000e+00
-9.341401e-01	 -1.728649e-01	 7.500000e-01
-9.341401e-01	 -1.728649e-01	 2.250000e+00
-9.341401e-01	 1.728649e-01	 7.500000e-01
-9.297883e-01	 -3.680947e-01	 1.125000e+00
-9.297883e-01	 -3.680947e-01	 0
-9.297883e-01	 -3.680947e-01	 7.500000e-01
-9.297883e-01	 -3.680947e-01	 1.500000e+00
-9.297883e-01	 -3.680947e-01	 1.875000e+00
-9.297883e-01	 -3.680947e-01	 2.250000e+00
-9.297883e-01	 -3.680947e-01	 2.625000e+00
-9.297883e-01	 -3.680947e-01	 3.000000e+00
-9.297883e-01	 -3.680947e-01	 3.750000e-01
-9.297883e-01	 3.680947e-01	 3.750000e-01
-9.297883e-01	 3.680947e-01	 2.250000e+00
-9.297883e-01	 3.680947e-01	 2.625000e+00
-9.297883e-01	 3.680947e-01	 0
-9.297883e-01	 3.680947e-01	 7.500000e-01
-9.297883e-01	 3.680947e-01	 1.500000e+00
-9.297883e-01	 3.680947e-01	 1.875000e+00
-9.297883e-01	 3.680947e-01	 3.000000e+00
-9.297883e-01	 3.680947e-01	 1.125000e+00
-9.181659e-01	 3.634935e-01	 7.500000e-01
-9.181659e-01	 -3.634935e-01	 0
-9.181659e-01	 -3.634935e-01	 7.500000e-01
-9.181659e-01	 -3.634935e-01	 2.250000e+00
-9.181659e-01	 -3.634935e-01	 3
-9.181659e-01	 3.634935e-01	 0
-9.181659e-01	 3.634935e-01	 2.250000e+00
-9.181659e-01	 3.634935e-01	 3
-9.181659e-01	 -3.634935e-01	 1.500000e+00
-9.181659e-01	 3.634935e-01	 1.500000e+00
-9.065436e-01	 -3.588923e-01	 1.125000e+00
-9.065436e-01	 -3.588923e-01	 2.625000e+00
-9.065436e-01	 -3.588923e-01	 0
-9.065436e-01	 -3.588923e-01	 3.750000e-01
-9.065436e-01	 -3.588923e-01	 1.500000e+00
-9.065436e-01	 -3.588923e-01	 3
-9.065436e-01	 3.588923e-01	 2.625000e+00
-9.065436e-01	 3.588923e-01	 1.125000e+00
-9.065436e-01	 3.588923e-01	 0
-9.065436e-01	 3.588923e-01	 3.750000e-01
-9.065436e-01	 3.588923e-01	 3
-9.065436e-01	 -3.588923e-01	 7.500000e-01
-9.065436e-01	 -3.588923e-01	 1.875000e+00
-9.065436e-01	 3.588923e-01	 1.875000e+00
-9.065436e-01	 3.588923e-01	 1.500000e+00
-9.065436e-01	 -3.588923e-01	 2.250000e+00
-9.065436e-01	 3.588923e-01	 7.500000e-01
-9.065436e-01	 3.588923e-01	 2.250000e+00
-8.949212e-01	 3.542912e-01	 1.500000e+00
-8.949212e-01	 -3.542912e-01	 1.500000e+00
-8.949212e-01	 -3.542912e-01	 0
-8.949212e-01	 -3.542912e-01	 3.000000e+00
-8.949212e-01	 3.542912e-01	 0
-8.949212e-01	 3.542912e-01	 3.000000e+00
-8.949212e-01	 -3.542912e-01	 2.250000e+00
-8.949212e-01	 -3.542912e-01	 7.500000e-01
-8.949212e-01	 3.542912e-01	 2.250000e+00
-8.949212e-01	 3.542912e-01	 7.500000e-01
-8.832989e-01	 -3.496900e-01	 1.125000e+00
-8.832989e-01	 -3.496900e-01	 1.875000e+00
-8.832989e-01	 -3.496900e-01	 2.625000e+00
-8.832989e-01	 -3.496900e-01	 2.250000e+00
-8.832989e-01	 3.496900e-01	 1.125000e+00
-8.832989e-01	 -3.496900e-01	 0
-8.832989e-01	 -3.496900e-01	 3.000000e+00
-8.832989e-01	 -3.496900e-01	 3.750000e-01
-8.832989e-01	 -3.496900e-01	 7.500000e-01
-8.832989e-01	 3.496900e-01	 3.750000e-01
-8.832989e-01	 3.496900e-01	 7.500000e-01
-8.832989e-01	 3.496900e-01	 2.250000e+00
-8.832989e-01	 3.496900e-01	 2.625000e+00
-8.832989e-01	 3.496900e-01	 0
-8.832989e-01	 3.496900e-01	 1.875000e+00
-8.832989e-01	 3.496900e-01	 3.000000e+00
-8.832989e-01	 -3.496900e-01	 1.500000e+00
-8.832989e-01	 3.496900e-01	 1.500000e+00
-8.369955e-01	 -5.472098e-01	 0
-8.369955e-01	 -5.472098e-01	 7.500000e-01
-8.369955e-01	 -5.472098e-01	 1.500000e+00
-8.369955e-01	 -5.472098e-01	 2.250000e+00
-8.369955e-01	 -5.472098e-01	 3
-8.369955e-01	 5.472098e-01	 0
-8.369955e-01	 5.472098e-01	 7.500000e-01
-8.369955e-01	 5.472098e-01	 1.500000e+00
-8.369955e-01	 5.472098e-01	 2.250000e+00
-8.369955e-01	 5.472098e-01	 3
-8.160706e-01	 -5.335295e-01	 7.500000e-01
-8.160706e-01	 5.335295e-01	 7.500000e-01
-8.160706e-01	 -5.335295e-01	 1.500000e+00
-8.160706e-01	 -5.335295e-01	 2.250000e+00
-8.160706e-01	 5.335295e-01	 1.500000e+00
-8.160706e-01	 5.335295e-01	 2.250000e+00
-8.160706e-01	 -5.335295e-01	 0
-8.160706e-01	 -5.335295e-01	 3.000000e+00
-8.160706e-01	 5.335295e-01	 0
-8.160706e-01	 5.335295e-01	 3.000000e+00
-7.951457e-01	 -5.198493e-01	 7.500000e-01
-7.951457e-01	 5.198493e-01	 7.500000e-01
-7.951457e-01	 -5.198493e-01	 0
-7.951457e-01	 -5.198493e-01	 1.500000e+00
-7.951457e-01	 -5.198493e-01	 2.250000e+00
-7.951457e-01	 -5.198493e-01	 3
-7.951457e-01	 5.198493e-01	 0
-7.951457e-01	 5.198493e-01	 1.500000e+00
-7.951457e-01	 5.198493e-01	 2.250000e+00
-7.951457e-01	 5.198493e-01	 3
-7.071068e-01	 -7.071068e-01	 0
-7.071068e-01	 -7.071068e-01	 3.750000e-01
-7.071068e-01	 -7.071068e-01	 7.500000e-01
-7.071068e-01	 -7.071068e-01	 1.125000e+00
-7.071068e-01	 -7.071068e-01	 1.500000e+00
-7.071068e-01	 -7.071068e-01	 1.875000e+00
-7.071068e-01	 -7.071068e-01	 2.250000e+00
-7.071068e-01	 -7.071068e-01	 2.625000e+00
-7.071068e-01	 -7.071068e-01	 3.000000e+00
-7.071068e-01	 7.071068e-01	 0
-7.071068e-01	 7.071068e-01	 3.750000e-01
-7.071068e-01	 7.071068e-01	 7.500000e-01
-7.071068e-01	 7.071068e-01	 1.125000e+00
-7.071068e-01	 7.071068e-01	 1.500000e+00
-7.071068e-01	 7.071068e-01	 1.875000e+00
-7.071068e-01	 7.071068e-01	 2.250000e+00
-7.071068e-01	 7.071068e-01	 2.625000e+00
-7.071068e-01	 7.071068e-01	 3.000000e+00
-6.982679e-01	 -6.982679e-01	 7.500000e-01
-6.982679e-01	 6.982679e-01	 7.500000e-01
-6.982679e-01	 -6.982679e-01	 0
-6.982679e-01	 -6.982679e-01	 2.250000e+00
-6.982679e-01	 -6.982679e-01	 3.000000e+00
-6.982679e-01	 6.982679e-01	 0
-6.982679e-01	 6.982679e-01	 2.250000e+00
-6.982679e-01	 6.982679e-01	 3.000000e+00
-6.982679e-01	 -6.982679e-01	 1.500000e+00
-6.982679e-01	 6.982679e-01	 1.500000e+00
-6.894291e-01	 -6.894291e-01	 3.750000e-01
-6.894291e-01	 -6.894291e-01	 2.625000e+00
-6.894291e-01	 -6.894291e-01	 0
-6.894291e-01	 -6.894291e-01	 1.500000e+00
-6.894291e-01	 -6.894291e-01	 2.250000e+00
-6.894291e-01	 -6.894291e-01	 3.000000e+00
-6.894291e-01	 6.894291e-01	 3.750000e-01
-6.894291e-01	 6.894291e-01	 2.625000e+00
-6.894291e-01	 -6.894291e-01	 1.875000e+00
-6.894291e-01	 6.894291e-01	 1.875000e+00
-6.894291e-01	 -6.894291e-01	 7.500000e-01
-6.894291e-01	 -6.894291e-01	 1.125000e+00
-6.894291e-01	 6.894291e-01	 0
-6.894291e-01	 6.894291e-01	 1.500000e+00
-6.894291e-01	 6.894291e-01	 2.250000e+00
-6.894291e-01	 6.894291e-01	 3.000000e+00
-6.894291e-01	 6.894291e-01	 7.500000e-01
-6.894291e-01	 6.894291e-01	 1.125000e+00
-6.805903e-01	 6.805903e-01	 7.500000e-01
-6.805903e-01	 -6.805903e-01	 7.500000e-01
-6.805903e-01	 -6.805903e-01	 0
-6.805903e-01	 -6.805903e-01	 1.500000e+00
-6.805903e-01	 -6.805903e-01	 3.000000e+00
-6.805903e-01	 6.805903e-01	 0
-6.805903e-01	 6.805903e-01	 1.500000e+00
-6.805903e-01	 6.805903e-01	 3.000000e+00
-6.805903e-01	 6.805903e-01	 2.250000e+00
-6.805903e-01	 -6.805903e-01	 2.250000e+00
-6.717514e-01	 -6.717514e-01	 2.625000e+00
-6.717514e-01	 6.717514e-01	 2.625000e+00
-6.717514e-01	 -6.717514e-01	 0
-6.717514e-01	 -6.717514e-01	 3.750000e-01
-6.717514e-01	 -6.717514e-01	 7.500000e-01
-6.717514e-01	 -6.717514e-01	 1.125000e+00
-6.717514e-01	 -6.717514e-01	 1.875000e+00
-6.717514e-01	 -6.717514e-01	 3.000000e+00
-6.717514e-01	 -6.717514e-01	 2.250000e+00
-6.717514e-01	 6.717514e-01	 1.500000e+00
-6.717514e-01	 6.717514e-01	 0
-6.717514e-01	 6.717514e-01	 3.750000e-01
-6.717514e-01	 6.717514e-01	 7.500000e-01
-6.717514e-01	 6.717514e-01	 1.125000e+00
-6.717514e-01	 6.717514e-01	 1.875000e+00
-6.717514e-01	 6.717514e-01	 3.000000e+00
-6.717514e-01	 -6.717514e-01	 1.500000e+00
-6.717514e-01	 6.717514e-01	 2.250000e+00
-5.472098e-01	 -8.369955e-01	 0
-5.472098e-01	 -8.369955e-01	 7.500000e-01
-5.472098e-01	 -8.369955e-01	 1.500000e+00
-5.472098e-01	 -8.369955e-01	 2.250000e+00
-5.472098e-01	 -8.369955e-01	 3
-5.472098e-01	 8.369955e-01	 0
-5.472098e-01	 8.369955e-01	 7.500000e-01
-5.472098e-01	 8.369955e-01	 1.500000e+00
-5.472098e-01	 8.369955e-01	 2.250000e+00
-5.472098e-01	 8.369955e-01	 3
-5.335295e-01	 -8.160706e-01	 1.500000e+00
-5.335295e-01	 -8.160706e-01	 2.250000e+00
-5.335295e-01	 8.160706e-01	 0
-5.335295e-01	 8.160706e-01	 3.000000e+00
[...]
POINT_DATA 832
VECTORS displacement float
0	 0	 -4.235631e-14
-1.673180e-13	 6.769188e-08	 -3.210178e-14
-2.468052e-13	 9.745597e-08	 -1.183776e-14
-2.359914e-13	 6.769189e-08	 1.040960e-14
-1.257843e-13	 2.620272e-14	 2.560055e-14
1.542342e-15	 -6.769184e-08	 2.308533e-14
6.894799e-14	 -9.745593e-08	 1.177990e-14
7.023901e-14	 -6.769186e-08	 -1.513616e-15
0	 0	 -8.969829e-15
0	 0	 -3.569410e-14
-1.260563e-13	 2.761839e-14	 2.065513e-14
0	 0	 -5.739659e-15
6.937821e-14	 -1.026706e-07	 1.056510e-14
-2.476199e-13	 1.026707e-07	 -1.062372e-14
7.064044e-08	 1.038107e-07	 -7.913206e-15
0	 0	 1.452925e-08
-9.005925e-14	 2.600060e-14	 -1.452926e-08
0	 0	 1.452927e-08
7.064070e-08	 -1.038106e-07	 1.308567e-14
0	 0	 -1.452933e-08
-1.286819e-13	 3.015775e-14	 1.452931e-08
0	 0	 -1.452929e-08
-7.064088e-08	 1.038107e-07	 -1.313136e-14
-7.064057e-08	 -1.038106e-07	 7.843036e-15
-2.481820e-13	 1.078781e-07	 -9.414777e-15
-2.368343e-13	 7.549241e-08	 6.091435e-15
0	 0	 -2.906492e-14
-1.679575e-13	 7.549239e-08	 -2.356027e-14
1.690421e-15	 -7.549235e-08	 1.629187e-14
7.059067e-14	 -7.549237e-08	 1.056525e-15
0	 0	 -2.528164e-15
-1.262318e-13	 2.903430e-14	 1.573558e-14
6.969231e-14	 -1.078781e-07	 9.355398e-15
-1.263637e-13	 3.043607e-14	 1.080649e-14
7.000761e-14	 -1.130453e-07	 8.143477e-15
0	 0	 -2.242308e-14
-2.486836e-13	 1.130454e-07	 -8.203610e-15
0	 0	 6.897066e-16
0	 0	 8.897251e-09
0	 0	 8.897269e-09
-9.144119e-14	 3.275433e-14	 -8.897260e-09
0	 0	 -8.897303e-09
0	 0	 -8.897274e-09
-1.292315e-13	 2.824354e-14	 8.897288e-09
-6.936288e-08	 1.125790e-07	 -1.059743e-14
6.936244e-08	 1.125790e-07	 -6.316228e-15
-6.936257e-08	 -1.125789e-07	 6.245273e-15
6.936270e-08	 -1.125790e-07	 1.055014e-14
0	 0	 -1.573464e-14
-1.680594e-13	 8.329173e-08	 -1.498877e-14
-2.369725e-13	 8.329175e-08	 1.754517e-15
-1.263830e-13	 3.184394e-14	 5.839344e-15
1.704408e-15	 -8.329169e-08	 9.473079e-15
7.019458e-14	 -1.182599e-07	 6.925498e-15
7.064092e-14	 -8.329171e-08	 3.640748e-15
0	 0	 3.937112e-15
-2.488978e-13	 1.182599e-07	 -6.986399e-15
-9.258604e-14	 3.960864e-14	 -3.244671e-09
0	 0	 3.244665e-09
0	 0	 3.244678e-09
6.789801e-08	 -1.214060e-07	 8.014947e-15
0	 0	 -3.244694e-09
-1.294803e-13	 2.625225e-14	 3.244683e-09
0	 0	 -3.244672e-09
6.789775e-08	 1.214060e-07	 -4.720779e-15
-6.789788e-08	 -1.214060e-07	 4.649026e-15
-6.789819e-08	 1.214060e-07	 -8.063857e-15
9.608006e-08	 9.117538e-08	 -1.751587e-08
0	 0	 2.727110e-08
1.259844e-07	 1.263349e-07	 -1.286867e-15
-2.540357e-14	 4.247596e-14	 -2.727110e-08
-9.608010e-08	 -9.117530e-08	 -1.751587e-08
-1.259844e-07	 -1.263348e-07	 1.206111e-15
-9.608009e-08	 -9.117532e-08	 1.751587e-08
0	 0	 2.727110e-08
9.608007e-08	 9.117536e-08	 1.751587e-08
-9.608023e-08	 9.117534e-08	 -1.751590e-08
1.259845e-07	 -1.263348e-07	 1.094453e-14
9.608016e-08	 -9.117532e-08	 -1.751587e-08
0	 0	 -2.727114e-08
-1.259846e-07	 1.263349e-07	 -1.097605e-14
-9.696519e-14	 2.398495e-14	 2.727112e-08
9.608010e-08	 -9.117530e-08	 1.751589e-08
0	 0	 -2.727111e-08
-9.608028e-08	 9.117535e-08	 1.751588e-08
-1.252022e-07	 1.298070e-07	 -1.001315e-14
0	 0	 2.198073e-08
1.252019e-07	 1.298070e-07	 -1.209837e-15
-1.252019e-07	 -1.298069e-07	 1.129063e-15
0	 0	 2.198073e-08
0	 0	 -2.198076e-08
1.252020e-07	 -1.298069e-07	 9.980781e-15
0	 0	 -2.198073e-08
-2.724875e-14	 4.712944e-14	 -2.198073e-08
-9.822075e-14	 2.126266e-14	 2.198075e-08
9.474475e-08	 9.623319e-08	 -1.193220e-08
-9.474479e-08	 -9.623312e-08	 1.193220e-08
0	 0	 1.670016e-08
9.474477e-08	 9.623316e-08	 1.193220e-08
-2.908397e-14	 5.176135e-14	 -1.670016e-08
0	 0	 1.670016e-08
9.474486e-08	 -9.623311e-08	 -1.193220e-08
-9.474499e-08	 9.623313e-08	 1.193220e-08
0	 0	 -1.670019e-08
-9.474494e-08	 9.623312e-08	 -1.193222e-08
0	 0	 -1.670016e-08
1.243176e-07	 1.332455e-07	 -1.132752e-15
-9.474481e-08	 -9.623309e-08	 -1.193220e-08
9.474481e-08	 -9.623310e-08	 1.193221e-08
-9.943588e-14	 1.854458e-14	 1.670017e-08
-1.243176e-07	 -1.332454e-07	 1.051969e-15
-1.243179e-07	 1.332454e-07	 -9.051626e-15
1.243177e-07	 -1.332454e-07	 9.018401e-15
-1.006212e-13	 1.584552e-14	 1.141166e-08
-3.090491e-14	 5.634904e-14	 -1.141165e-08
0	 0	 1.141165e-08
0	 0	 1.141165e-08
0	 0	 -1.141167e-08
0	 0	 -1.141165e-08
-1.234407e-07	 -1.366551e-07	 9.740673e-16
1.234406e-07	 1.366552e-07	 -1.054863e-15
1.234408e-07	 -1.366551e-07	 8.054436e-15
-1.234409e-07	 1.366551e-07	 -8.088520e-15
9.315413e-08	 1.011929e-07	 -6.325721e-09
-9.315419e-08	 -1.011928e-07	 -6.325720e-09
-9.315418e-08	 -1.011928e-07	 6.325721e-09
-1.224446e-07	 -1.400477e-07	 8.958271e-16
-9.315438e-08	 1.011928e-07	 6.325721e-09
0	 0	 6.092486e-09
0	 0	 6.092489e-09
9.315415e-08	 1.011928e-07	 6.325719e-09
1.224445e-07	 1.400478e-07	 -9.766433e-16
-9.315433e-08	 1.011928e-07	 -6.325734e-09
-1.224448e-07	 1.400477e-07	 -7.122565e-15
1.224446e-07	 -1.400476e-07	 7.087609e-15
9.315425e-08	 -1.011928e-07	 -6.325715e-09
0	 0	 -6.092503e-09
9.315419e-08	 -1.011928e-07	 6.325729e-09
0	 0	 -6.092483e-09
-3.273626e-14	 6.097021e-14	 -6.092488e-09
-1.017781e-13	 1.310918e-14	 6.092493e-09
0	 0	 3.674625e-08
1.635577e-07	 1.524464e-07	 5.671248e-15
3.567818e-14	 7.599843e-14	 -3.674624e-08
-1.635577e-07	 -1.524462e-07	 -5.759871e-15
0	 0	 3.674623e-08
0	 0	 -3.674624e-08
-1.635578e-07	 1.524462e-07	 -6.684636e-15
-5.390671e-14	 1.877273e-15	 3.674623e-08
1.635577e-07	 -1.524462e-07	 6.668437e-15
0	 0	 -3.674622e-08
1.623480e-07	 1.558549e-07	 4.306766e-15
-1.623480e-07	 1.558547e-07	 -5.780592e-15
3.188960e-14	 8.191638e-14	 -2.279401e-08
-1.623480e-07	 -1.558548e-07	 -4.394696e-15
-5.722215e-14	 -3.034815e-15	 2.279400e-08
1.623480e-07	 -1.558548e-07	 5.763025e-15
0	 0	 2.279401e-08
0	 0	 2.279400e-08
0	 0	 -2.279401e-08
0	 0	 -2.279399e-08
1.608231e-07	 1.590991e-07	 2.942618e-15
-1.608231e-07	 1.590989e-07	 -4.875391e-15
0	 0	 8.798651e-09
2.789066e-14	 8.776100e-14	 -8.798647e-09
-1.608230e-07	 -1.590989e-07	 -3.029865e-15
0	 0	 8.798643e-09
0	 0	 -8.798652e-09
-6.057379e-14	 -7.973699e-15	 8.798645e-09
1.608230e-07	 -1.590989e-07	 4.856435e-15
0	 0	 -8.798638e-09
0	 0	 3.931890e-08
1.247040e-07	 1.247041e-07	 2.531135e-08
1.661101e-07	 1.661103e-07	 1.024624e-14
1.247040e-07	 1.247041e-07	 -2.531133e-08
6.646365e-14	 1.052072e-13	 -3.931889e-08
-1.247039e-07	 -1.247039e-07	 -2.531134e-08
-1.661100e-07	 -1.661101e-07	 -1.034038e-14
-1.247039e-07	 -1.247040e-07	 2.531133e-08
0	 0	 3.931888e-08
0	 0	 -3.931886e-08
-1.247039e-07	 1.247039e-07	 -2.531132e-08
-1.661100e-07	 1.661100e-07	 -1.543454e-15
-1.247039e-07	 1.247039e-07	 2.531132e-08
-1.832655e-14	 -2.825786e-14	 3.931886e-08
1.247038e-07	 -1.247039e-07	 2.531132e-08
1.661100e-07	 -1.661100e-07	 1.543718e-15
1.247039e-07	 -1.247039e-07	 -2.531131e-08
0	 0	 -3.931885e-08
1.666664e-07	 1.666666e-07	 9.072868e-15
-1.666663e-07	 1.666663e-07	 -1.608139e-15
0	 0	 3.173907e-08
-1.666663e-07	 -1.666664e-07	 -9.166315e-15
0	 0	 3.173905e-08
0	 0	 -3.173903e-08
1.666662e-07	 -1.666663e-07	 1.607872e-15
0	 0	 -3.173903e-08
6.550479e-14	 1.065466e-13	 -3.173906e-08
-2.017354e-14	 -3.016044e-14	 3.173903e-08
1.253309e-07	 1.253310e-07	 1.726619e-08
-1.253308e-07	 -1.253309e-07	 1.726616e-08
0	 0	 2.417068e-08
6.448829e-14	 1.078177e-13	 -2.417067e-08
-1.671222e-07	 -1.671224e-07	 -7.996841e-15
0	 0	 2.417066e-08
-1.253308e-07	 1.253308e-07	 -1.726616e-08
1.253308e-07	 -1.253308e-07	 -1.726616e-08
-1.253308e-07	 -1.253309e-07	 -1.726618e-08
1.253308e-07	 -1.253309e-07	 1.726616e-08
1.671223e-07	 1.671225e-07	 7.904085e-15
1.253309e-07	 1.253311e-07	 -1.726617e-08
0	 0	 -2.417065e-08
-2.203935e-14	 -3.204201e-14	 2.417065e-08
1.671222e-07	 -1.671223e-07	 1.670235e-15
0	 0	 -2.417064e-08
-1.671222e-07	 1.671222e-07	 -1.671029e-15
-1.253308e-07	 1.253308e-07	 1.726616e-08
-1.675707e-07	 1.675707e-07	 -1.734041e-15
1.675708e-07	 1.675710e-07	 6.733919e-15
0	 0	 1.658920e-08
6.345881e-14	 1.090578e-13	 -1.658919e-08
0	 0	 1.658918e-08
0	 0	 -1.658918e-08
-2.389188e-14	 -3.390329e-14	 1.658918e-08
0	 0	 -1.658917e-08
1.675706e-07	 -1.675707e-07	 1.732713e-15
-1.675707e-07	 -1.675708e-07	 -6.825981e-15
-1.256965e-07	 -1.256966e-07	 9.184439e-09
1.256964e-07	 -1.256965e-07	 -9.184437e-09
0	 0	 8.965358e-09
1.256965e-07	 1.256967e-07	 9.184454e-09
1.679117e-07	 1.679119e-07	 5.557963e-15
1.256966e-07	 1.256968e-07	 -9.184444e-09
-1.256965e-07	 -1.256965e-07	 -9.184450e-09
0	 0	 8.965342e-09
-1.679116e-07	 -1.679118e-07	 -5.649331e-15
-2.577635e-14	 -3.574685e-14	 8.965342e-09
0	 0	 -8.965344e-09
-1.256965e-07	 1.256965e-07	 -9.184441e-09
-1.679116e-07	 1.679116e-07	 -1.798542e-15
-1.256965e-07	 1.256965e-07	 9.184438e-09
1.256964e-07	 -1.256965e-07	 9.184440e-09
0	 0	 -8.965339e-09
6.234733e-14	 1.102310e-13	 -8.965350e-09
1.679116e-07	 -1.679117e-07	 1.796677e-15
0	 0	 3.674632e-08
1.524464e-07	 1.635582e-07	 1.149140e-14
6.512479e-14	 1.107209e-13	 -3.674630e-08
-1.524463e-07	 -1.635580e-07	 -1.158826e-14
0	 0	 3.674629e-08
0	 0	 -3.674625e-08
-1.524462e-07	 1.635578e-07	 3.001692e-15
2.041175e-15	 -5.572540e-14	 3.674625e-08
1.524462e-07	 -1.635579e-07	 -2.986223e-15
0	 0	 -3.674626e-08
6.738117e-14	 1.094293e-13	 -2.279405e-08
-1.558549e-07	 -1.623483e-07	 -9.136082e-15
0	 0	 -2.279401e-08
0	 0	 -2.279402e-08
-3.890220e-16	 -5.734443e-14	 2.279401e-08
1.558548e-07	 -1.623482e-07	 -2.076513e-15
1.558550e-07	 1.623485e-07	 9.041014e-15
0	 0	 2.279406e-08
0	 0	 2.279403e-08
-1.558548e-07	 1.623481e-07	 2.091340e-15
-1.590989e-07	 1.608232e-07	 1.182187e-15
1.590991e-07	 1.608236e-07	 6.591360e-15
0	 0	 8.798673e-09
6.944975e-14	 1.078167e-13	 -8.798663e-09
-1.590990e-07	 -1.608234e-07	 -6.684626e-15
0	 0	 8.798654e-09
0	 0	 -8.798648e-09
-2.915473e-15	 -5.884674e-14	 8.798650e-09
1.590989e-07	 -1.608232e-07	 -1.168007e-15
0	 0	 -8.798652e-09
9.117550e-08	 9.608058e-08	 -1.751593e-08
-9.117536e-08	 9.608026e-08	 1.751591e-08
0	 0	 2.727121e-08
1.263351e-07	 1.259850e-07	 8.468574e-15
4.113747e-14	 7.299831e-14	 -2.727120e-08
-9.117543e-08	 -9.608044e-08	 -1.751594e-08
0	 0	 2.727119e-08
0	 0	 -2.727114e-08
-1.263349e-07	 1.259847e-07	 5.633033e-15
6.929717e-15	 -6.871624e-14	 2.727115e-08
9.117537e-08	 -9.608039e-08	 1.751590e-08
1.263349e-07	 -1.259848e-07	 -5.605253e-15
9.117537e-08	 -9.608035e-08	 -1.751591e-08
0	 0	 -2.727116e-08
9.117548e-08	 9.608054e-08	 1.751595e-08
-1.263350e-07	 -1.259849e-07	 -8.564842e-15
-9.117545e-08	 -9.608048e-08	 1.751592e-08
-9.117536e-08	 9.608029e-08	 -1.751590e-08
4.503136e-14	 7.165554e-14	 -2.198081e-08
6.696202e-15	 -6.893512e-14	 2.198077e-08
1.298072e-07	 1.252026e-07	 7.664599e-15
0	 0	 2.198082e-08
-1.298071e-07	 -1.252025e-07	 -7.759768e-15
0	 0	 2.198080e-08
0	 0	 -2.198076e-08
-1.298070e-07	 1.252022e-07	 4.986603e-15
1.298070e-07	 -1.252023e-07	 -4.958923e-15
0	 0	 -2.198078e-08
-1.332455e-07	 -1.243182e-07	 -6.957606e-15
1.332454e-07	 -1.243180e-07	 -4.314160e-15
-9.623314e-08	 9.474496e-08	 1.193222e-08
9.623315e-08	 -9.474506e-08	 -1.193223e-08
0	 0	 1.670023e-08
9.623327e-08	 9.474524e-08	 1.193225e-08
0	 0	 1.670021e-08
4.888373e-14	 7.026758e-14	 -1.670022e-08
0	 0	 -1.670019e-08
-9.623315e-08	 9.474500e-08	 -1.193221e-08
6.442977e-15	 -6.912726e-14	 1.670019e-08
0	 0	 -1.670020e-08
9.623330e-08	 9.474528e-08	 -1.193224e-08
-9.623321e-08	 -9.474515e-08	 -1.193224e-08
1.332456e-07	 1.243183e-07	 6.863530e-15
-1.332454e-07	 1.243179e-07	 4.341733e-15
9.623316e-08	 -9.474509e-08	 1.193222e-08
-9.623324e-08	 -9.474519e-08	 1.193223e-08
5.269289e-14	 6.887529e-14	 -1.141169e-08
-1.366552e-07	 -1.234412e-07	 -6.154906e-15
1.366551e-07	 -1.234410e-07	 -3.668517e-15
0	 0	 -1.141167e-08
0	 0	 -1.141168e-08
6.186372e-15	 -6.929904e-14	 1.141167e-08
0	 0	 1.141170e-08
0	 0	 1.141168e-08
1.366553e-07	 1.234413e-07	 6.061924e-15
-1.366551e-07	 1.234409e-07	 3.695985e-15
1.011930e-07	 9.315467e-08	 -6.325739e-09
0	 0	 6.092518e-09
-1.011929e-07	 -9.315454e-08	 -6.325745e-09
0	 0	 6.092503e-09
5.650340e-14	 6.741066e-14	 -6.092510e-09
0	 0	 -6.092495e-09
0	 0	 -6.092504e-09
-1.011928e-07	 9.315436e-08	 6.325733e-09
1.011928e-07	 -9.315449e-08	 6.325730e-09
1.011928e-07	 -9.315445e-08	 -6.325736e-09
1.011929e-07	 9.315463e-08	 6.325749e-09
1.400479e-07	 1.224452e-07	 5.256593e-15
-1.400478e-07	 -1.224451e-07	 -5.348463e-15
-1.011929e-07	 -9.315458e-08	 6.325734e-09
5.918550e-15	 -6.943713e-14	 6.092500e-09
-1.011928e-07	 9.315439e-08	 -6.325727e-09
1.400477e-07	 -1.224449e-07	 -3.020817e-15
-1.400477e-07	 1.224448e-07	 3.048177e-15
1.038108e-07	 7.064115e-08	 3.645772e-15
-1.038107e-07	 7.064093e-08	 6.573639e-15
0	 0	 1.452937e-08
2.281377e-14	 1.111121e-14	 -1.452937e-08
0	 0	 1.452936e-08
0	 0	 -1.452933e-08
6.310955e-15	 -6.896202e-14	 1.452934e-08
0	 0	 -1.452935e-08
-1.038108e-07	 -7.064114e-08	 -3.736069e-15
1.038107e-07	 -7.064103e-08	 -6.535382e-15
1.125792e-07	 6.936315e-08	 3.344766e-15
0	 0	 8.897331e-09
0	 0	 8.897322e-09
-1.125790e-07	 6.936293e-08	 5.237583e-15
1.125790e-07	 -6.936303e-08	 -5.199293e-15
0	 0	 -8.897301e-09
0	 0	 -8.897316e-09
-1.125791e-07	 -6.936314e-08	 -3.433158e-15
6.961761e-15	 -6.890674e-14	 8.897308e-09
3.091987e-14	 9.661483e-15	 -8.897326e-09
7.602067e-15	 -6.876542e-14	 3.244691e-09
0	 0	 3.244702e-09
3.909682e-14	 8.230894e-15	 -3.244698e-09
0	 0	 3.244694e-09
0	 0	 -3.244686e-09
0	 0	 -3.244696e-09
-1.214061e-07	 -6.789844e-08	 -3.127895e-15
1.214062e-07	 6.789846e-08	 3.041422e-15
-1.214060e-07	 6.789824e-08	 3.901244e-15
1.214061e-07	 -6.789834e-08	 -3.862928e-15
0	 0	 4.904855e-14
6.769196e-08	 2.154981e-13	 3.185413e-14
9.745608e-08	 2.778695e-13	 -8.186848e-16
6.769197e-08	 1.904839e-13	 -3.333522e-14
1.896229e-14	 -4.551439e-14	 -5.022550e-14
-6.769193e-08	 -2.758007e-13	 -3.251224e-14
-9.745606e-08	 -3.422043e-13	 7.370661e-16
-6.769194e-08	 -2.508120e-13	 3.383202e-14
0	 0	 5.124334e-14
0	 0	 3.997558e-14
2.253711e-14	 -4.564867e-14	 -4.053882e-14
0	 0	 4.094124e-14
-1.026708e-07	 -3.435298e-13	 3.022891e-16
1.026708e-07	 2.790053e-13	 -3.830660e-16
1.078783e-07	 2.798203e-13	 4.844126e-17
7.549251e-08	 1.913111e-13	 -2.195674e-14
0	 0	 3.094901e-14
7.549250e-08	 2.164064e-13	 2.201214e-14
-7.549247e-08	 -2.769043e-13	 -2.203540e-14
-7.549248e-08	 -2.518348e-13	 2.181867e-14
0	 0	 3.069711e-14
2.609379e-14	 -4.571411e-14	 -3.090432e-14
-1.078782e-07	 -3.444373e-13	 -1.283868e-16
2.961652e-14	 -4.575196e-14	 -2.125122e-14
-1.130455e-07	 -3.452658e-13	 -5.602599e-16
0	 0	 2.190554e-14
1.130455e-07	 2.805952e-13	 4.811434e-16
0	 0	 2.043268e-14
0	 0	 1.279158e-14
8.329187e-08	 2.165604e-13	 1.212988e-14
8.329188e-08	 1.914985e-13	 -1.053391e-14
3.316610e-14	 -4.570877e-14	 -1.152247e-14
-8.329182e-08	 -2.769779e-13	 -1.151661e-14
-1.182601e-07	 -3.456196e-13	 -9.958094e-16
-8.329184e-08	 -2.519419e-13	 9.759271e-15
0	 0	 1.008741e-14
1.182601e-07	 2.810100e-13	 9.175376e-16
-1.182599e-07	 2.557916e-13	 3.536875e-15
0	 0	 -5.941693e-15
-8.329176e-08	 1.998389e-13	 -5.665549e-15
-8.329175e-08	 1.672404e-13	 1.241094e-14
8.649145e-15	 -5.985075e-14	 1.095722e-14
8.329177e-08	 -2.785721e-13	 8.487158e-15
1.182600e-07	 -3.404641e-13	 -3.488649e-15
8.329177e-08	 -2.459700e-13	 -1.513622e-14
0	 0	 -1.587645e-14
0	 0	 -1.436395e-14
-1.130454e-07	 2.554543e-13	 4.119182e-15
0	 0	 -2.594668e-14
7.720313e-15	 -5.982145e-14	 2.020358e-14
1.130454e-07	 -3.400854e-13	 -4.071074e-15
6.793850e-15	 -5.976912e-14	 2.937728e-14
1.078781e-07	 -3.392856e-13	 -4.652035e-15
0	 0	 -2.271562e-14
-7.549241e-08	 1.997580e-13	 -1.470470e-14
7.549242e-08	 -2.784143e-13	 1.835395e-14
7.549242e-08	 -2.458441e-13	 -2.699748e-14
0	 0	 -3.594215e-14
-1.078781e-07	 2.547286e-13	 4.700032e-15
-7.549241e-08	 1.671916e-13	 2.344456e-14
-1.026707e-07	 2.539594e-13	 5.280077e-15
1.026707e-07	 -3.384135e-13	 -5.232208e-15
0	 0	 -3.105085e-14
5.855032e-15	 -5.969659e-14	 3.853340e-14
0	 0	 -4.591893e-14
0	 0	 -3.943566e-14
-6.769189e-08	 1.989055e-13	 -2.370587e-14
-9.745599e-08	 2.528476e-13	 5.861082e-15
-6.769189e-08	 1.664203e-13	 3.443619e-14
4.919566e-15	 -5.960232e-14	 4.774049e-14
6.769190e-08	 -2.773657e-13	 2.818110e-14
9.745599e-08	 -3.371682e-13	 -5.813336e-15
6.769190e-08	 -2.448768e-13	 -3.881511e-14
0	 0	 -5.594805e-14
1.214062e-07	 -6.789794e-08	 -7.514369e-16
-1.214062e-07	 6.789783e-08	 6.848499e-16
-1.214061e-07	 -6.789779e-08	 2.446629e-15
1.214061e-07	 6.789773e-08	 -2.389707e-15
0	 0	 -3.244676e-09
0	 0	 -3.244674e-09
0	 0	 3.244673e-09
1.154541e-14	 -4.338374e-14	 -3.244669e-09
0	 0	 3.244666e-09
2.925900e-14	 -7.707542e-14	 3.244675e-09
8.657265e-15	 -4.287607e-14	 -8.897256e-09
2.762027e-14	 -7.768683e-14	 8.897271e-09
1.125790e-07	 6.936242e-08	 -3.169974e-15
0	 0	 -8.897274e-09
0	 0	 -8.897268e-09
1.125792e-07	 -6.936264e-08	 -2.289569e-15
-1.125791e-07	 6.936253e-08	 2.221792e-15
0	 0	 8.897260e-09
0	 0	 8.897251e-09
-1.125790e-07	 -6.936248e-08	 3.226593e-15
-1.038108e-07	 7.064054e-08	 3.761306e-15
1.038107e-07	 7.064042e-08	 -3.950640e-15
0	 0	 -1.452928e-08
2.592276e-14	 -7.794129e-14	 1.452928e-08
0	 0	 -1.452927e-08
0	 0	 1.452926e-08
5.800893e-15	 -4.229932e-14	 -1.452925e-08
0	 0	 1.452925e-08
1.038108e-07	 -7.064065e-08	 -3.830284e-15
-1.038107e-07	 -7.064048e-08	 4.006944e-15
1.400480e-07	 -1.224449e-07	 -1.010441e-15
-1.400480e-07	 1.224448e-07	 9.590936e-16
1.011930e-07	 -9.315440e-08	 -6.325734e-09
2.142374e-14	 -7.216914e-14	 6.092500e-09
-1.011929e-07	 -9.315421e-08	 6.325724e-09
-1.400478e-07	 -1.224446e-07	 5.819947e-16
1.400478e-07	 1.224446e-07	 -5.170581e-16
1.011929e-07	 9.315419e-08	 6.325722e-09
1.011930e-07	 -9.315444e-08	 6.325732e-09
-1.011930e-07	 9.315430e-08	 6.325733e-09
-1.011930e-07	 9.315434e-08	 -6.325731e-09
0	 0	 -6.092502e-09
0	 0	 -6.092499e-09
1.998671e-14	 -1.936012e-14	 -6.092490e-09
0	 0	 6.092491e-09
1.011929e-07	 9.315418e-08	 -6.325723e-09
0	 0	 6.092490e-09
-1.011929e-07	 -9.315422e-08	 -6.325722e-09
1.366554e-07	 -1.234410e-07	 -1.733760e-15
-1.366552e-07	 -1.234407e-07	 6.828194e-16
0	 0	 1.141166e-08
0	 0	 1.141165e-08
2.301123e-14	 -7.154836e-14	 1.141167e-08
0	 0	 -1.141167e-08
0	 0	 -1.141167e-08
-1.366554e-07	 1.234409e-07	 1.682061e-15
1.366552e-07	 1.234407e-07	 -6.180481e-16
1.816390e-14	 -1.864695e-14	 -1.141165e-08
9.623321e-08	 9.474481e-08	 1.193220e-08
1.332457e-07	 -1.243179e-07	 -2.452821e-15
-9.623329e-08	 9.474492e-08	 1.193222e-08
-1.332455e-07	 -1.243177e-07	 7.828572e-16
9.623322e-08	 9.474480e-08	 -1.193220e-08
-9.623319e-08	 -9.474483e-08	 -1.193220e-08
0	 0	 -1.670020e-08
9.623332e-08	 -9.474502e-08	 -1.193223e-08
2.455019e-14	 -7.085582e-14	 1.670019e-08
0	 0	 -1.670019e-08
1.635417e-14	 -1.792274e-14	 -1.670017e-08
0	 0	 1.670017e-08
-9.623320e-08	 -9.474482e-08	 1.193220e-08
0	 0	 1.670017e-08
9.623333e-08	 -9.474505e-08	 1.193222e-08
-9.623330e-08	 9.474496e-08	 -1.193222e-08
-1.332456e-07	 1.243178e-07	 2.400776e-15
1.332455e-07	 1.243177e-07	 -7.182515e-16
0	 0	 -2.198078e-08
1.298072e-07	 -1.252023e-07	 -3.170513e-15
-1.298072e-07	 1.252022e-07	 3.118123e-15
0	 0	 -2.198077e-08
0	 0	 2.198074e-08
1.298071e-07	 1.252020e-07	 -8.180389e-16
0	 0	 2.198074e-08
-1.298070e-07	 -1.252020e-07	 8.824726e-16
2.610222e-14	 -7.013447e-14	 2.198077e-08
1.452520e-14	 -1.719044e-14	 -2.198074e-08
9.117550e-08	 -9.608032e-08	 -1.751591e-08
-9.117539e-08	 -9.608013e-08	 1.751588e-08
1.263349e-07	 1.259844e-07	 -9.185092e-16
9.117540e-08	 9.608011e-08	 1.751588e-08
0	 0	 -2.727116e-08
1.263351e-07	 -1.259847e-07	 -3.892171e-15
2.764035e-14	 -6.934185e-14	 2.727116e-08
-9.117546e-08	 9.608023e-08	 1.751591e-08
-1.263350e-07	 1.259846e-07	 3.839429e-15
-9.117548e-08	 9.608027e-08	 -1.751590e-08
0	 0	 -2.727115e-08
0	 0	 2.727111e-08
-1.263349e-07	 -1.259845e-07	 9.827701e-16
1.270118e-14	 -1.644748e-14	 -2.727111e-08
9.117540e-08	 9.608011e-08	 -1.751588e-08
0	 0	 2.727111e-08
9.117552e-08	 -9.608036e-08	 1.751590e-08
-9.117538e-08	 -9.608014e-08	 -1.751588e-08
0	 0	 -8.798668e-09
2.147029e-15	 -4.109147e-14	 8.798667e-09
-1.590993e-07	 1.608234e-07	 2.533825e-16
0	 0	 -8.798667e-09
0	 0	 8.798652e-09
3.378474e-14	 7.811470e-15	 -8.798654e-09