# vtk DataFile Version 3.0
Unstructured Grid Example
ASCII
DATASET UNSTRUCTURED_GRID
POINTS 832 float
-1	 0	 0
-1	 0	 3.750000e-01
-1	 0	 7.500000e-01
-1	 0	 1.125000e+00
-1	 0	 1.500000e+00
-1	 0	 1.875000e+00
-1	 0	 2.250000e+00
-1	 0	 2.625000e+00
-1	 0	 3
-9.875000e-01	 0	 0
-9.875000e-01	 0	 1.500000e+00
-9.875000e-01	 0	 3
-9.875000e-01	 0	 2.250000e+00
-9.875000e-01	 0	 7.500000e-01
-9.833054e-01	 -1.819631e-01	 7.500000e-01
-9.833054e-01	 -1.819631e-01	 0
-9.833054e-01	 -1.819631e-01	 1.500000e+00
-9.833054e-01	 -1.819631e-01	 3.000000e+00
-9.833054e-01	 1.819631e-01	 2.250000e+00
-9.833054e-01	 1.819631e-01	 0
-9.833054e-01	 1.819631e-01	 1.500000e+00
-9.833054e-01	 1.819631e-01	 3.000000e+00
-9.833054e-01	 1.819631e-01	 7.500000e-01
-9.833054e-01	 -1.819631e-01	 2.250000e+00
-9.750000e-01	 0	 7.500000e-01
-9.750000e-01	 0	 1.125000e+00
-9.750000e-01	 0	 0
-9.750000e-01	 0	 3.750000e-01
-9.750000e-01	 0	 1.875000e+00
-9.750000e-01	 0	 2.625000e+00
-9.750000e-01	 0	 3
-9.750000e-01	 0	 1.500000e+00
-9.750000e-01	 0	 2.250000e+00
-9.625000e-01	 0	 1.500000e+00
-9.625000e-01	 0	 2.250000e+00
-9.625000e-01	 0	 0
-9.625000e-01	 0	 7.500000e-01
-9.625000e-01	 0	 3
-9.587227e-01	 -1.774140e-01	 0
-9.587227e-01	 -1.774140e-01	 3.000000e+00
-9.587227e-01	 -1.774140e-01	 1.500000e+00
-9.587227e-01	 1.774140e-01	 0
-9.587227e-01	 1.774140e-01	 3.000000e+00
-9.587227e-01	 1.774140e-01	 1.500000e+00
-9.587227e-01	 1.774140e-01	 7.500000e-01
-9.587227e-01	 -1.774140e-01	 7.500000e-01
-9.587227e-01	 -1.774140e-01	 2.250000e+00
-9.587227e-01	 1.774140e-01	 2.250000e+00
-9.500000e-01	 0	 0
-9.500000e-01	 0	 3.750000e-01
-9.500000e-01	 0	 1.125000e+00
-9.500000e-01	 0	 1.500000e+00
-9.500000e-01	 0	 1.875000e+00
-9.500000e-01	 0	 2.250000e+00
-9.500000e-01	 0	 2.625000e+00
-9.500000e-01	 0	 3
-9.500000e-01	 0	 7.500000e-01
-9.341401e-01	 -1.728649e-01	 1.500000e+00
-9.341401e-01	 -1.728649e-01	 0
-9.341401e-01	 -1.728649e-01	 3.000000e+00
-9.341401e-01	 1.728649e-01	 2.250000e+00
-9.341401e-01	 1.728649e-01	 0
-9.341401e-01	 1.728649e-01	 1.500000e+00
-9.341401e-01	 1.728649e-01	 3.000000e+00
-9.341401e-01	 -1.728649e-01	 7.500000e-01
-9.341401e-01	 -1.728649e-01	 2.250000e+00
-9.341401e-01	 1.728649e-01	 7.500000e-01
-9.297883e-01	 -3.680947e-01	 1.125000e+00
-9.297883e-01	 -3.680947e-01	 0
-9.297883e-01	 -3.680947e-01	 7.500000e-01
-9.297883e-01	 -3.680947e-01	 1.500000e+00
-9.297883e-01	 -3.680947e-01	 1.875000e+00
-9.297883e-01	 -3.680947e-01	 2.250000e+00
-9.297883e-01	 -3.680947e-01	 2.625000e+00
-9.297883e-01	 -3.680947e-01	 3.000000e+00
-9.297883e-01	 -3.680947e-01	 3.750000e-01
-9.297883e-01	 3.680947e-01	 3.750000e-01
-9.297883e-01	 3.680947e-01	 2.250000e+00
-9.297883e-01	 3.680947e-01	 2.625000e+00
-9.297883e-01	 3.680947e-01	 0
-9.297883e-01	 3.680947e-01	 7.500000e-01
-9.297883e-01	 3.680947e-01	 1.500000e+00
-9.297883e-01	 3.680947e-01	 1.875000e+00
-9.297883e-01	 3.680947e-01	 3.000000e+00
-9.297883e-01	 3.680947e-01	 1.125000e+00
-9.181659e-01	 3.634935e-01	 7.500000e-01
-9.181659e-01	 -3.634935e-01	 0
-9.181659e-01	 -3.634935e-01	 7.500000e-01
-9.181659e-01	 -3.634935e-01	 2.250000e+00
-9.181659e-01	 -3.634935e-01	 3
-9.181659e-01	 3.634935e-01	 0
-9.181659e-01	 3.634935e-01	 2.250000e+00
-9.181659e-01	 3.634935e-01	 3
-9.181659e-01	 -3.634935e-01	 1.500000e+00
-9.181659e-01	 3.634935e-01	 1.500000e+00
-9.065436e-01	 -3.588923e-01	 1.125000e+00
-9.065436e-01	 -3.588923e-01	 2.625000e+00
-9.065436e-01	 -3.588923e-01	 0
-9.065436e-01	 -3.588923e-01	 3.750000e-01
-9.065436e-01	 -3.588923e-01	 1.500000e+00
-9.065436e-01	 -3.588923e-01	 3
-9.065436e-01	 3.588923e-01	 2.625000e+00
-9.065436e-01	 3.588923e-01	 1.125000e+00
-9.065436e-01	 3.588923e-01	 0
-9.065436e-01	 3.588923e-01	 3.750000e-01
-9.065436e-01	 3.588923e-01	 3
-9.065436e-01	 -3.588923e-01	 7.500000e-01
-9.065436e-01	 -3.588923e-01	 1.875000e+00
-9.065436e-01	 3.588923e-01	 1.875000e+00
-9.065436e-01	 3.588923e-01	 1.500000e+00
-9.065436e-01	 -3.588923e-01	 2.250000e+00
-9.065436e-01	 3.588923e-01	 7.500000e-01
-9.065436e-01	 3.588923e-01	 2.250000e+00
-8.949212e-01	 3.542912e-01	 1.500000e+00
-8.949212e-01	 -3.542912e-01	 1.500000e+00
-8.949212e-01	 -3.542912e-01	 0
-8.949212e-01	 -3.542912e-01	 3.000000e+00
-8.949212e-01	 3.542912e-01	 0
-8.949212e-01	 3.542912e-01	 3.000000e+00
-8.949212e-01	 -3.542912e-01	 2.250000e+00
-8.949212e-01	 -3.542912e-01	 7.500000e-01
-8.949212e-01	 3.542912e-01	 2.250000e+00
-8.949212e-01	 3.542912e-01	 7.500000e-01
-8.832989e-01	 -3.496900e-01	 1.125000e+00
-8.832989e-01	 -3.496900e-01	 1.875000e+00
-8.832989e-01	 -3.496900e-01	 2.625000e+00
-8.832989e-01	 -3.496900e-01	 2.250000e+00
-8.832989e-01	 3.496900e-01	 1.125000e+00
-8.832989e-01	 -3.496900e-01	 0
-8.832989e-01	 -3.496900e-01	 3.000000e+00
-8.832989e-01	 -3.496900e-01	 3.750000e-01
-8.832989e-01	 -3.496900e-01	 7.500000e-01
-8.832989e-01	 3.496900e-01	 3.750000e-01
-8.832989e-01	 3.496900e-01	 7.500000e-01
-8.832989e-01	 3.496900e-01	 2.250000e+00
-8.832989e-01	 3.496900e-01	 2.625000e+00
-8.832989e-01	 3.496900e-01	 0
-8.832989e-01	 3.496900e-01	 1.875000e+00
-8.832989e-01	 3.496900e-01	 3.000000e+00
-8.832989e-01	 -3.496900e-01	 1.500000e+00
-8.832989e-01	 3.496900e-01	 1.500000e+00
-8.369955e-01	 -5.472098e-01	 0
-8.369955e-01	 -5.472098e-01	 7.500000e-01
-8.369955e-01	 -5.472098e-01	 1.500000e+00
-8.369955e-01	 -5.472098e-01	 2.250000e+00
-8.369955e-01	 -5.472098e-01	 3
-8.369955e-01	 5.472098e-01	 0
-8.369955e-01	 5.472098e-01	 7.500000e-01
-8.369955e-01	 5.472098e-01	 1.500000e+00
-8.369955e-01	 5.472098e-01	 2.250000e+00
-8.369955e-01	 5.472098e-01	 3
-8.160706e-01	 -5.335295e-01	 7.500000e-01
-8.160706e-01	 5.335295e-01	 7.500000e-01
-8.160706e-01	 -5.335295e-01	 1.500000e+00
-8.160706e-01	 -5.335295e-01	 2.250000e+00
-8.160706e-01	 5.335295e-01	 1.500000e+00
-8.160706e-01	 5.335295e-01	 2.250000e+00
-8.160706e-01	 -5.335295e-01	 0
-8.160706e-01	 -5.335295e-01	 3.000000e+00
-8.160706e-01	 5.335295e-01	 0
-8.160706e-01	 5.335295e-01	 3.000000e+00
-7.951457e-01	 -5.198493e-01	 7.500000e-01
-7.951457e-01	 5.198493e-01	 7.500000e-01
-7.951457e-01	 -5.198493e-01	 0
-7.951457e-01	 -5.198493e-01	 1.500000e+00
-7.951457e-01	 -5.198493e-01	 2.250000e+00
-7.951457e-01	 -5.198493e-01	 3
-7.951457e-01	 5.198493e-01	 0
-7.951457e-01	 5.198493e-01	 1.500000e+00
-7.951457e-01	 5.198493e-01	 2.250000e+00
-7.951457e-01	 5.198493e-01	 3
-7.071068e-01	 -7.071068e-01	 0
-7.071068e-01	 -7.071068e-01	 3.750000e-01
-7.071068e-01	 -7.071068e-01	 7.500000e-01
-7.071068e-01	 -7.071068e-01	 1.125000e+00
-7.071068e-01	 -7.071068e-01	 1.500000e+00
-7.071068e-01	 -7.071068e-01	 1.875000e+00
-7.071068e-01	 -7.071068e-01	 2.250000e+00
-7.071068e-01	 -7.071068e-01	 2.625000e+00
-7.071068e-01	 -7.071068e-01	 3.000000e+00
-7.071068e-01	 7.071068e-01	 0
-7.071068e-01	 7.071068e-01	 3.750000e-01
-7.071068e-01	 7.071068e-01	 7.500000e-01
-7.071068e-01	 7.071068e-01	 1.125000e+00
-7.071068e-01	 7.071068e-01	 1.500000e+00
-7.071068e-01	 7.071068e-01	 1.875000e+00
-7.071068e-01	 7.071068e-01	 2.250000e+00
-7.071068e-01	 7.071068e-01	 2.625000e+00
-7.071068e-01	 7.071068e-01	 3.000000e+00
-6.982679e-01	 -6.982679e-01	 7.500000e-01
-6.982679e-01	 6.982679e-01	 7.500000e-01
-6.982679e-01	 -6.982679e-01	 0
-6.982679e-01	 -6.982679e-01	 2.250000e+00
-6.982679e-01	 -6.982679e-01	 3.000000e+00
-6.982679e-01	 6.982679e-01	 0
-6.982679e-01	 6.982679e-01	 2.250000e+00
-6.982679e-01	 6.982679e-01	 3.000000e+00
-6.982679e-01	 -6.982679e-01	 1.500000e+00
-6.982679e-01	 6.982679e-01	 1.500000e+00
-6.894291e-01	 -6.894291e-01	 3.750000e-01
-6.894291e-01	 -6.894291e-01	 2.625000e+00
-6.894291e-01	 -6.894291e-01	 0
-6.894291e-01	 -6.894291e-01	 1.500000e+00
-6.894291e-01	 -6.894291e-01	 2.250000e+00
-6.894291e-01	 -6.894291e-01	 3.000000e+00
-6.894291e-01	 6.894291e-01	 3.750000e-01
-6.894291e-01	 6.894291e-01	 2.625000e+00
-6.894291e-01	 -6.894291e-01	 1.875000e+00
-6.894291e-01	 6.894291e-01	 1.875000e+00
-6.894291e-01	 -6.894291e-01	 7.500000e-01
-6.894291e-01	 -6.894291e-01	 1.125000e+00
-6.894291e-01	 6.894291e-01	 0
-6.894291e-01	 6.894291e-01	 1.500000e+00
-6.894291e-01	 6.894291e-01	 2.250000e+00
-6.894291e-01	 6.894291e-01	 3.000000e+00
-6.894291e-01	 6.894291e-01	 7.500000e-01
-6.894291e-01	 6.894291e-01	 1.125000e+00
-6.805903e-01	 6.805903e-01	 7.500000e-01
-6.805903e-01	 -6.805903e-01	 7.500000e-01
-6.805903e-01	 -6.805903e-01	 0
-6.805903e-01	 -6.805903e-01	 1.500000e+00
-6.805903e-01	 -6.805903e-01	 3.000000e+00
-6.805903e-01	 6.805903e-01	 0
-6.805903e-01	 6.805903e-01	 1.500000e+00
-6.805903e-01	 6.805903e-01	 3.000000e+00
-6.805903e-01	 6.805903e-01	 2.250000e+00
-6.805903e-01	 -6.805903e-01	 2.250000e+00
-6.717514e-01	 -6.717514e-01	 2.625000e+00
-6.717514e-01	 6.717514e-01	 2.625000e+00
-6.717514e-01	 -6.717514e-01	 0
-6.717514e-01	 -6.717514e-01	 3.750000e-01
-6.717514e-01	 -6.717514e-01	 7.500000e-01
-6.717514e-01	 -6.717514e-01	 1.125000e+00
-6.717514e-01	 -6.717514e-01	 1.875000e+00
-6.717514e-01	 -6.717514e-01	 3.000000e+00
-6.717514e-01	 -6.717514e-01	 2.250000e+00
-6.717514e-01	 6.717514e-01	 1.500000e+00
-6.717514e-01	 6.717514e-01	 0
-6.717514e-01	 6.717514e-01	 3.750000e-01
-6.717514e-01	 6.717514e-01	 7.500000e-01
-6.717514e-01	 6.717514e-01	 1.125000e+00
-6.717514e-01	 6.717514e-01	 1.875000e+00
-6.717514e-01	 6.717514e-01	 3.000000e+00
-6.717514e-01	 -6.717514e-01	 1.500000e+00
-6.717514e-01	 6.717514e-01	 2.250000e+00
-5.472098e-01	 -8.369955e-01	 0
-5.472098e-01	 -8.369955e-01	 7.500000e-01
-5.472098e-01	 -8.369955e-01	 1.500000e+00
-5.472098e-01	 -8.369955e-01	 2.250000e+00
-5.472098e-01	 -8.369955e-01	 3
-5.472098e-01	 8.369955e-01	 0
-5.472098e-01	 8.369955e-01	 7.500000e-01
-5.472098e-01	 8.369955e-01	 1.500000e+00
-5.472098e-01	 8.369955e-01	 2.250000e+00
-5.472098e-01	 8.369955e-01	 3
-5.335295e-01	 -8.160706e-01	 1.500000e+00
-5.335295e-01	 -8.160706e-01	 2.250000e+00
-5.335295e-01	 8.160706e-01	 0
-5.335295e-01	 8.160706e-01	 3.000000e+00
[...]
POINT_DATA 832
VECTORS displacement float
0	 0	 -4.834964e-08
-6.554889e-08	 1.026035e-07	 -4.438998e-08
-1.207201e-07	 1.897224e-07	 -3.418835e-08
-1.582490e-07	 2.477067e-07	 -1.838693e-08
-1.707240e-07	 2.683080e-07	 8.535325e-16
-1.582490e-07	 2.477067e-07	 1.838693e-08
-1.207201e-07	 1.897224e-07	 3.418835e-08
-6.554889e-08	 1.026035e-07	 4.438998e-08
0	 0	 4.834963e-08
0	 0	 -4.599815e-08
-1.710458e-07	 2.685559e-07	 6.924141e-16
0	 0	 4.599815e-08
-1.209476e-07	 1.898977e-07	 3.252560e-08
-1.209476e-07	 1.898977e-07	 -3.252560e-08
-1.181796e-07	 1.890577e-07	 -2.327204e-08
0	 0	 -3.291163e-08
-1.671312e-07	 2.673679e-07	 1.549397e-15
0	 0	 3.291163e-08
-1.226482e-07	 1.911486e-07	 4.399132e-08
0	 0	 -6.221311e-08
-1.734508e-07	 2.703249e-07	 7.783555e-18
0	 0	 6.221311e-08
-1.226482e-07	 1.911486e-07	 -4.399132e-08
-1.181796e-07	 1.890577e-07	 2.327204e-08
-1.211660e-07	 1.900767e-07	 -3.086108e-08
-1.588125e-07	 2.481889e-07	 -1.671438e-08
0	 0	 -4.364416e-08
-6.578230e-08	 1.028032e-07	 -4.035209e-08
-1.588125e-07	 2.481889e-07	 1.671438e-08
-6.578229e-08	 1.028032e-07	 4.035209e-08
0	 0	 4.364416e-08
-1.713545e-07	 2.688091e-07	 5.318517e-16
-1.211659e-07	 1.900768e-07	 3.086108e-08
-1.716576e-07	 2.690679e-07	 3.709746e-16
-1.213803e-07	 1.902597e-07	 2.919440e-08
0	 0	 -4.128712e-08
-1.213803e-07	 1.902597e-07	 -2.919440e-08
0	 0	 4.128712e-08
0	 0	 -2.974461e-08
0	 0	 2.974461e-08
-1.676350e-07	 2.677771e-07	 9.785893e-16
0	 0	 -5.614665e-08
0	 0	 5.614665e-08
-1.741815e-07	 2.707714e-07	 1.139498e-17
-1.231649e-07	 1.914643e-07	 -3.970167e-08
-1.185358e-07	 1.893470e-07	 -2.103261e-08
-1.185358e-07	 1.893470e-07	 2.103261e-08
-1.231649e-07	 1.914643e-07	 3.970167e-08
0	 0	 -3.892443e-08
-6.599631e-08	 1.030123e-07	 -3.629919e-08
-1.593292e-07	 2.486936e-07	 -1.503562e-08
-1.719473e-07	 2.693349e-07	 2.090571e-16
-1.593292e-07	 2.486936e-07	 1.503562e-08
-1.215851e-07	 1.904486e-07	 2.752373e-08
-6.599630e-08	 1.030123e-07	 3.629919e-08
0	 0	 3.892443e-08
-1.215851e-07	 1.904486e-07	 -2.752373e-08
-1.681221e-07	 2.682195e-07	 4.068137e-16
0	 0	 -2.656866e-08
0	 0	 2.656866e-08
-1.236396e-07	 1.917883e-07	 3.539909e-08
0	 0	 -5.006188e-08
-1.748528e-07	 2.712295e-07	 1.511346e-17
0	 0	 5.006188e-08
-1.188803e-07	 1.896598e-07	 -1.878688e-08
-1.188803e-07	 1.896598e-07	 1.878688e-08
-1.236396e-07	 1.917882e-07	 -3.539909e-08
-1.509673e-07	 2.470943e-07	 -5.828681e-09
0	 0	 -1.530710e-08
-1.154925e-07	 1.893049e-07	 -1.082375e-08
-1.633311e-07	 2.677175e-07	 1.808183e-15
-1.509673e-07	 2.470943e-07	 5.828683e-09
-1.154925e-07	 1.893049e-07	 1.082375e-08
-6.253271e-08	 1.023498e-07	 1.407168e-08
0	 0	 1.530710e-08
-6.253272e-08	 1.023498e-07	 -1.407168e-08
-6.699337e-08	 1.045513e-07	 -6.833265e-08
-1.231888e-07	 1.930492e-07	 5.263734e-08
-6.699338e-08	 1.045513e-07	 6.833265e-08
0	 0	 -7.444044e-08
-1.231888e-07	 1.930492e-07	 -5.263734e-08
-1.742153e-07	 2.730128e-07	 -8.517689e-16
-1.617363e-07	 2.524092e-07	 2.830431e-08
0	 0	 7.444044e-08
-1.617363e-07	 2.524092e-07	 -2.830431e-08
-1.234986e-07	 1.932142e-07	 -5.008896e-08
0	 0	 -1.455852e-08
-1.156228e-07	 1.894420e-07	 -1.029442e-08
-1.156228e-07	 1.894420e-07	 1.029442e-08
0	 0	 1.455851e-08
0	 0	 -7.083648e-08
-1.234986e-07	 1.932142e-07	 5.008896e-08
0	 0	 7.083648e-08
-1.635154e-07	 2.679114e-07	 1.465280e-15
-1.746534e-07	 2.732461e-07	 -6.862187e-16
-1.513117e-07	 2.474848e-07	 -5.296352e-09
-6.267533e-08	 1.025116e-07	 1.278653e-08
0	 0	 -1.380903e-08
-6.267534e-08	 1.025116e-07	 -1.278653e-08
-1.637001e-07	 2.681137e-07	 1.123795e-15
0	 0	 1.380903e-08
-6.730722e-08	 1.047310e-07	 6.214425e-08
-1.624940e-07	 2.528431e-07	 -2.574099e-08
0	 0	 -6.722858e-08
-6.730721e-08	 1.047310e-07	 -6.214425e-08
0	 0	 6.722858e-08
-1.157534e-07	 1.895850e-07	 -9.764461e-09
-1.513116e-07	 2.474848e-07	 5.296354e-09
-1.624940e-07	 2.528431e-07	 2.574099e-08
-1.750714e-07	 2.734779e-07	 -5.214676e-16
-1.157534e-07	 1.895850e-07	 9.764461e-09
-1.237942e-07	 1.933781e-07	 -4.753779e-08
-1.237942e-07	 1.933781e-07	 4.753779e-08
-1.754799e-07	 2.737104e-07	 -3.566405e-16
-1.638848e-07	 2.683217e-07	 7.818493e-16
0	 0	 -1.305826e-08
0	 0	 1.305826e-08
0	 0	 -6.361636e-08
0	 0	 6.361636e-08
-1.158841e-07	 1.897321e-07	 9.233584e-09
-1.158841e-07	 1.897321e-07	 -9.233584e-09
-1.240830e-07	 1.935425e-07	 4.498356e-08
-1.240830e-07	 1.935425e-07	 -4.498356e-08
-1.516539e-07	 2.479034e-07	 -4.761767e-09
-1.516539e-07	 2.479035e-07	 4.761768e-09
-6.281710e-08	 1.026850e-07	 1.149592e-08
-1.160154e-07	 1.898858e-07	 8.701468e-09
-1.631798e-07	 2.532672e-07	 -2.316833e-08
0	 0	 -1.230573e-08
0	 0	 1.230573e-08
-6.281712e-08	 1.026850e-07	 -1.149592e-08
-1.160155e-07	 1.898858e-07	 -8.701468e-09
-6.759127e-08	 1.049067e-07	 -5.593330e-08
-1.243575e-07	 1.937049e-07	 -4.242323e-08
-1.243575e-07	 1.937049e-07	 4.242323e-08
-6.759127e-08	 1.049067e-07	 5.593330e-08
0	 0	 -5.999551e-08
-1.631798e-07	 2.532672e-07	 2.316833e-08
0	 0	 5.999551e-08
-1.640706e-07	 2.685391e-07	 4.375154e-16
-1.758680e-07	 2.739401e-07	 -1.906451e-16
0	 0	 3.606417e-09
-1.131615e-07	 1.903521e-07	 2.550123e-09
-1.600345e-07	 2.691985e-07	 1.616666e-15
-1.131615e-07	 1.903521e-07	 -2.550123e-09
0	 0	 -3.606421e-09
0	 0	 -8.430326e-08
-1.227453e-07	 1.949315e-07	 -5.961141e-08
-1.735881e-07	 2.756748e-07	 -1.485748e-15
-1.227453e-07	 1.949315e-07	 5.961141e-08
0	 0	 8.430326e-08
-1.132981e-07	 1.906206e-07	 2.283154e-09
-1.233650e-07	 1.953817e-07	 -5.383890e-08
-1.602277e-07	 2.695782e-07	 1.027945e-15
-1.132981e-07	 1.906206e-07	 -2.283154e-09
-1.744644e-07	 2.763114e-07	 -9.379555e-16
-1.233650e-07	 1.953817e-07	 5.383890e-08
0	 0	 3.228866e-09
0	 0	 -3.228868e-09
0	 0	 -7.613970e-08
0	 0	 7.613970e-08
-1.134507e-07	 1.909046e-07	 2.015264e-09
-1.239437e-07	 1.958153e-07	 -4.804905e-08
0	 0	 2.850013e-09
-1.604434e-07	 2.699798e-07	 4.387310e-16
-1.134506e-07	 1.909046e-07	 -2.015264e-09
0	 0	 -2.850014e-09
0	 0	 -6.795162e-08
-1.752829e-07	 2.769247e-07	 -3.896069e-16
-1.239437e-07	 1.958153e-07	 4.804905e-08
0	 0	 6.795162e-08
0	 0	 2.268135e-08
-6.032765e-08	 1.039412e-07	 2.082673e-08
-1.117135e-07	 1.920338e-07	 1.603814e-08
-1.456438e-07	 2.509363e-07	 8.626717e-09
-1.579867e-07	 2.715768e-07	 7.300014e-16
-1.456438e-07	 2.509363e-07	 -8.626716e-09
-1.117135e-07	 1.920338e-07	 -1.603814e-08
-6.032765e-08	 1.039412e-07	 -2.082674e-08
0	 0	 -2.268136e-08
0	 0	 -9.065694e-08
-6.602909e-08	 1.066876e-07	 -8.324588e-08
-1.214679e-07	 1.966469e-07	 -6.410413e-08
-1.594083e-07	 2.575666e-07	 -3.448158e-08
-1.717815e-07	 2.781007e-07	 -1.503049e-15
-1.594084e-07	 2.575666e-07	 3.448157e-08
-1.214679e-07	 1.966469e-07	 6.410413e-08
-6.602911e-08	 1.066876e-07	 8.324589e-08
0	 0	 9.065694e-08
-1.117275e-07	 1.921988e-07	 1.525676e-08
-1.217649e-07	 1.969467e-07	 -6.100912e-08
0	 0	 2.157632e-08
-1.117275e-07	 1.921988e-07	 -1.525676e-08
0	 0	 -2.157632e-08
0	 0	 -8.627993e-08
-1.217649e-07	 1.969467e-07	 6.100912e-08
0	 0	 8.627993e-08
-1.580065e-07	 2.718102e-07	 5.910029e-16
-1.722016e-07	 2.785247e-07	 -1.212690e-15
-6.035638e-08	 1.041247e-07	 1.892910e-08
-6.035637e-08	 1.041247e-07	 -1.892910e-08
0	 0	 2.047010e-08
-1.580363e-07	 2.720449e-07	 4.529012e-16
-1.117485e-07	 1.923648e-07	 -1.447454e-08
0	 0	 -2.047010e-08
-6.633256e-08	 1.069987e-07	 -7.573078e-08
-6.633257e-08	 1.069987e-07	 7.573078e-08
-1.457132e-07	 2.513793e-07	 -7.840688e-09
-1.601410e-07	 2.583176e-07	 3.136872e-08
-1.117485e-07	 1.923648e-07	 1.447454e-08
-1.457132e-07	 2.513793e-07	 7.840689e-09
0	 0	 -8.189790e-08
-1.726053e-07	 2.789353e-07	 -9.237592e-16
-1.220504e-07	 1.972371e-07	 5.791056e-08
0	 0	 8.189791e-08
-1.220504e-07	 1.972371e-07	 -5.791056e-08
-1.601410e-07	 2.583176e-07	 -3.136872e-08
-1.223297e-07	 1.975231e-07	 -5.480818e-08
-1.117740e-07	 1.925323e-07	 1.369136e-08
0	 0	 1.936251e-08
-1.580723e-07	 2.722818e-07	 3.147081e-16
0	 0	 -1.936251e-08
0	 0	 -7.751047e-08
-1.730003e-07	 2.793398e-07	 -6.345675e-16
0	 0	 7.751047e-08
-1.223297e-07	 1.975231e-07	 5.480818e-08
-1.117740e-07	 1.925323e-07	 -1.369136e-08
-6.039922e-08	 1.043092e-07	 -1.702448e-08
-6.661046e-08	 1.072883e-07	 6.818786e-08
0	 0	 1.825226e-08
-6.039923e-08	 1.043092e-07	 1.702448e-08
-1.118068e-07	 1.927009e-07	 1.290630e-08
-1.458166e-07	 2.518246e-07	 7.051769e-09
-1.458166e-07	 2.518246e-07	 -7.051769e-09
0	 0	 -1.825226e-08
-1.118068e-07	 1.927009e-07	 -1.290630e-08
-1.733791e-07	 2.797309e-07	 -3.431665e-16
0	 0	 -7.311265e-08
-6.661045e-08	 1.072883e-07	 -6.818785e-08
-1.225976e-07	 1.977996e-07	 -5.169845e-08
-1.608119e-07	 2.590168e-07	 -2.824433e-08
-1.608119e-07	 2.590168e-07	 2.824433e-08
0	 0	 7.311265e-08
-1.581187e-07	 2.725203e-07	 1.752725e-16
-1.225976e-07	 1.977996e-07	 5.169845e-08
0	 0	 4.080707e-08
-1.110842e-07	 1.939830e-07	 2.885496e-08
-1.570967e-07	 2.743334e-07	 -4.208847e-16
-1.110842e-07	 1.939830e-07	 -2.885496e-08
0	 0	 -4.080707e-08
0	 0	 -9.338658e-08
-1.197982e-07	 1.980930e-07	 -6.603428e-08
-1.694203e-07	 2.801458e-07	 -1.049180e-15
-1.197982e-07	 1.980930e-07	 6.603429e-08
0	 0	 9.338658e-08
-1.570762e-07	 2.749447e-07	 -2.675247e-16
-1.110696e-07	 1.944152e-07	 -2.606303e-08
0	 0	 -8.437183e-08
0	 0	 8.437183e-08
-1.700705e-07	 2.811532e-07	 -6.515208e-16
-1.202580e-07	 1.988053e-07	 5.965989e-08
-1.110697e-07	 1.944152e-07	 2.606303e-08
0	 0	 3.685869e-08
0	 0	 -3.685869e-08
-1.202580e-07	 1.988053e-07	 -5.965989e-08
-1.206923e-07	 1.994804e-07	 -5.326635e-08
-1.110829e-07	 1.948404e-07	 2.326296e-08
0	 0	 3.289880e-08
-1.570949e-07	 2.755459e-07	 -1.138528e-16
-1.110829e-07	 1.948404e-07	 -2.326296e-08
0	 0	 -3.289880e-08
0	 0	 -7.532999e-08
-1.706847e-07	 2.821080e-07	 -2.535352e-16
-1.206923e-07	 1.994804e-07	 5.326635e-08
0	 0	 7.532999e-08
-1.451622e-07	 2.565657e-07	 2.160802e-08
-1.543360e-07	 2.610569e-07	 -3.502482e-08
0	 0	 5.680392e-08
-1.113842e-07	 1.959866e-07	 4.016643e-08
-1.575211e-07	 2.771669e-07	 -1.507662e-15
-1.451622e-07	 2.565657e-07	 -2.160802e-08
0	 0	 -5.680391e-08
0	 0	 -9.210249e-08
-1.178778e-07	 1.991112e-07	 -6.512629e-08
-1.667044e-07	 2.815857e-07	 -5.701519e-17
-1.543360e-07	 2.610569e-07	 3.502482e-08
-1.178778e-07	 1.991112e-07	 6.512629e-08
-6.392808e-08	 1.081333e-07	 8.455740e-08
0	 0	 9.210249e-08
-6.012816e-08	 1.062730e-07	 5.216638e-08
-1.113842e-07	 1.959866e-07	 -4.016643e-08
-6.012816e-08	 1.062730e-07	 -5.216638e-08
-6.392807e-08	 1.081333e-07	 -8.455740e-08
-1.575183e-07	 2.775698e-07	 -1.219679e-15
-1.669205e-07	 2.821532e-07	 -3.839123e-17
-1.113823e-07	 1.962715e-07	 3.821413e-08
0	 0	 5.404294e-08
-1.113823e-07	 1.962714e-07	 -3.821413e-08
0	 0	 -5.404294e-08
0	 0	 -8.765632e-08
-1.180306e-07	 1.995124e-07	 -6.198238e-08
-1.180306e-07	 1.995124e-07	 6.198238e-08
0	 0	 8.765632e-08
-1.113880e-07	 1.965489e-07	 -3.625965e-08
-1.181791e-07	 1.998985e-07	 5.883491e-08
-1.547223e-07	 2.620506e-07	 -3.186266e-08
-6.408809e-08	 1.085449e-07	 7.692328e-08
0	 0	 5.127889e-08
-6.014090e-08	 1.065716e-07	 4.742571e-08
0	 0	 -5.127888e-08
-1.575265e-07	 2.779621e-07	 -9.326696e-16
0	 0	 -8.320513e-08
-6.408808e-08	 1.085449e-07	 -7.692328e-08
-1.671305e-07	 2.826992e-07	 -2.025472e-17
0	 0	 8.320513e-08
-1.451930e-07	 2.572865e-07	 1.964437e-08
-1.451930e-07	 2.572865e-07	 -1.964437e-08
-1.113880e-07	 1.965489e-07	 3.625965e-08
-1.181791e-07	 1.998985e-07	 -5.883491e-08
-1.547223e-07	 2.620506e-07	 3.186266e-08
-6.014090e-08	 1.065715e-07	 -4.742571e-08
-1.575417e-07	 2.783499e-07	 -6.450623e-16
-1.113988e-07	 1.968231e-07	 -3.430252e-08
-1.183258e-07	 2.002776e-07	 5.568354e-08
0	 0	 -7.874842e-08
0	 0	 7.874842e-08
-1.673380e-07	 2.832353e-07	 -2.287108e-18
0	 0	 4.851109e-08
0	 0	 -4.851109e-08
-1.113988e-07	 1.968231e-07	 3.430252e-08
-1.183258e-07	 2.002776e-07	 -5.568354e-08
-1.452625e-07	 2.579665e-07	 1.767323e-08
0	 0	 4.573672e-08
-1.452625e-07	 2.579665e-07	 -1.767323e-08
0	 0	 -4.573672e-08
-1.575685e-07	 2.787274e-07	 -3.555538e-16
0	 0	 -7.428113e-08
0	 0	 7.428113e-08
-1.550832e-07	 2.629657e-07	 -2.868880e-08
-1.550832e-07	 2.629657e-07	 2.868880e-08
-6.423755e-08	 1.089240e-07	 6.926089e-08
-6.016968e-08	 1.068532e-07	 4.266695e-08
-1.114178e-07	 1.970900e-07	 3.234075e-08
-1.114178e-07	 1.970900e-07	 -3.234075e-08
-6.016968e-08	 1.068532e-07	 -4.266695e-08
-1.675383e-07	 2.837502e-07	 1.612791e-17
-6.423755e-08	 1.089240e-07	 -6.926089e-08
-1.184674e-07	 2.006417e-07	 5.252469e-08
-1.184674e-07	 2.006417e-07	 -5.252469e-08
-1.123839e-07	 1.977300e-07	 4.954029e-08
-1.157995e-07	 1.995259e-07	 -6.189085e-08
0	 0	 7.006055e-08
-1.589349e-07	 2.796324e-07	 -2.226376e-15
0	 0	 -7.006054e-08
0	 0	 -8.752689e-08
-1.637652e-07	 2.821722e-07	 9.740271e-16
0	 0	 8.752688e-08
-1.123839e-07	 1.977299e-07	 -4.954029e-08
-1.157995e-07	 1.995259e-07	 6.189085e-08
-1.124294e-07	 1.983845e-07	 4.475810e-08
0	 0	 6.329752e-08
0	 0	 -6.329752e-08
-1.160150e-07	 2.002950e-07	 -5.590181e-08
-1.160150e-07	 2.002949e-07	 5.590181e-08
0	 0	 -7.905710e-08
0	 0	 7.905710e-08
-1.124294e-07	 1.983844e-07	 -4.475810e-08
-1.640700e-07	 2.832598e-07	 6.268870e-16
-1.589993e-07	 2.805580e-07	 -1.396402e-15
-1.643720e-07	 2.842790e-07	 2.797420e-16
0	 0	 5.651465e-08
-1.590929e-07	 2.814369e-07	 -5.655864e-16
0	 0	 -5.651465e-08
0	 0	 -7.056184e-08
0	 0	 7.056184e-08
-1.124957e-07	 1.990059e-07	 -3.996189e-08
-1.124957e-07	 1.990060e-07	 3.996189e-08
-1.162286e-07	 2.010156e-07	 -4.989475e-08
-1.162286e-07	 2.010156e-07	 4.989475e-08
0	 0	 8.006385e-08
-6.160605e-08	 1.079929e-07	 7.350770e-08
-1.139130e-07	 1.988989e-07	 5.661369e-08
-1.487302e-07	 2.607180e-07	 3.044789e-08
-1.610973e-07	 2.812854e-07	 -2.137043e-15
-1.487302e-07	 2.607180e-07	 -3.044789e-08
-1.139130e-07	 1.988988e-07	 -5.661369e-08
-6.160605e-08	 1.079929e-07	 -7.350770e-08
0	 0	 -8.006385e-08
0	 0	 7.618926e-08
-1.611973e-07	 2.818148e-07	 -1.724155e-15
0	 0	 -7.618925e-08
-1.139837e-07	 1.992731e-07	 -5.387394e-08
-1.139837e-07	 1.992732e-07	 5.387394e-08
-1.140568e-07	 1.996336e-07	 5.113114e-08
-1.489291e-07	 2.616477e-07	 2.769228e-08
0	 0	 7.231035e-08
-6.168844e-08	 1.083780e-07	 6.685507e-08
-1.489291e-07	 2.616477e-07	 -2.769228e-08
-6.168845e-08	 1.083780e-07	 -6.685507e-08
0	 0	 -7.231035e-08
-1.613007e-07	 2.823245e-07	 -1.313485e-15
-1.140568e-07	 1.996336e-07	 -5.113114e-08
-1.614079e-07	 2.828258e-07	 -9.020115e-16
-1.141326e-07	 1.999881e-07	 -4.838480e-08
0	 0	 6.842644e-08
-1.141326e-07	 1.999881e-07	 4.838480e-08
0	 0	 -6.842644e-08
0	 0	 6.453331e-08
-6.177674e-08	 1.087333e-07	 6.017764e-08
-1.491422e-07	 2.625055e-07	 2.492639e-08
-1.615197e-07	 2.833071e-07	 -4.872825e-16
-1.491422e-07	 2.625055e-07	 -2.492640e-08
-1.142117e-07	 2.003283e-07	 -4.563194e-08
-6.177674e-08	 1.087333e-07	 -6.017764e-08
0	 0	 -6.453331e-08
-1.142117e-07	 2.003284e-07	 4.563194e-08
-1.142116e-07	 2.003290e-07	 -4.563203e-08
0	 0	 -6.453343e-08
-6.177669e-08	 1.087337e-07	 -6.017775e-08
-1.491421e-07	 2.625064e-07	 -2.492644e-08
-1.615196e-07	 2.833080e-07	 3.784633e-16
-1.491421e-07	 2.625064e-07	 2.492644e-08
-1.142116e-07	 2.003290e-07	 4.563203e-08
-6.177669e-08	 1.087337e-07	 6.017775e-08
0	 0	 6.453343e-08
0	 0	 -6.842657e-08
-1.141325e-07	 1.999887e-07	 -4.838489e-08
0	 0	 6.842657e-08
-1.614078e-07	 2.828268e-07	 6.871339e-16
-1.141325e-07	 1.999887e-07	 4.838489e-08
-1.613006e-07	 2.823255e-07	 9.931953e-16
-1.140567e-07	 1.996342e-07	 5.113124e-08
0	 0	 -7.231050e-08
-6.168840e-08	 1.083784e-07	 -6.685520e-08
-1.489290e-07	 2.616486e-07	 2.769233e-08
-6.168840e-08	 1.083784e-07	 6.685520e-08
0	 0	 7.231049e-08
-1.140567e-07	 1.996343e-07	 -5.113124e-08
-1.489290e-07	 2.616486e-07	 -2.769233e-08
-1.139836e-07	 1.992738e-07	 -5.387405e-08
-1.139836e-07	 1.992738e-07	 5.387405e-08
0	 0	 -7.618941e-08
-1.611972e-07	 2.818157e-07	 1.298688e-15
0	 0	 7.618941e-08
0	 0	 -8.006402e-08
-6.160601e-08	 1.079933e-07	 -7.350786e-08
-1.139129e-07	 1.988995e-07	 -5.661381e-08
-1.487301e-07	 2.607189e-07	 -3.044795e-08
-1.610972e-07	 2.812864e-07	 1.606122e-15
-1.487301e-07	 2.607188e-07	 3.044795e-08
-1.139129e-07	 1.988995e-07	 5.661381e-08
-6.160601e-08	 1.079933e-07	 7.350786e-08
0	 0	 8.006402e-08
-1.162287e-07	 2.010150e-07	 4.989468e-08
-1.162287e-07	 2.010150e-07	 -4.989468e-08
-1.124956e-07	 1.990066e-07	 -3.996197e-08
-1.124956e-07	 1.990066e-07	 3.996197e-08
0	 0	 7.056174e-08
0	 0	 -7.056174e-08
0	 0	 -5.651477e-08
-1.590928e-07	 2.814379e-07	 4.699220e-16
0	 0	 5.651477e-08
-1.643722e-07	 2.842781e-07	 -4.021213e-16
-1.589991e-07	 2.805589e-07	 1.142971e-15
-1.640701e-07	 2.832590e-07	 -9.780530e-16
-1.124294e-07	 1.983851e-07	 4.475821e-08
0	 0	 7.905698e-08
0	 0	 -7.905698e-08
-1.160151e-07	 2.002944e-07	 5.590173e-08
-1.160151e-07	 2.002944e-07	 -5.590173e-08
0	 0	 -6.329767e-08
0	 0	 6.329766e-08
-1.124294e-07	 1.983851e-07	 -4.475821e-08
-1.157996e-07	 1.995253e-07	 -6.189075e-08
-1.123839e-07	 1.977306e-07	 4.954041e-08
0	 0	 8.752674e-08
-1.637653e-07	 2.821714e-07	 -1.553706e-15
0	 0	 -8.752674e-08
0	 0	 -7.006072e-08
-1.589348e-07	 2.796333e-07	 1.815876e-15
0	 0	 7.006071e-08
-1.157996e-07	 1.995253e-07	 6.189075e-08
-1.123839e-07	 1.977306e-07	 -4.954041e-08
-1.184676e-07	 2.006412e-07	 5.252465e-08
-1.184676e-07	 2.006412e-07	 -5.252465e-08
-6.423763e-08	 1.089237e-07	 6.926083e-08
-1.675385e-07	 2.837495e-07	 -8.230097e-17
-6.016966e-08	 1.068536e-07	 -4.266705e-08
-1.114177e-07	 1.970906e-07	 -3.234082e-08
-1.114177e-07	 1.970906e-07	 3.234082e-08
-6.016966e-08	 1.068536e-07	 4.266705e-08
-1.550834e-07	 2.629651e-07	 2.868878e-08
-1.550834e-07	 2.629651e-07	 -2.868878e-08
-6.423764e-08	 1.089237e-07	 -6.926083e-08
0	 0	 7.428107e-08
0	 0	 -7.428107e-08
-1.575685e-07	 2.787282e-07	 2.835576e-16
0	 0	 -4.573682e-08
-1.452624e-07	 2.579673e-07	 1.767327e-08
0	 0	 4.573682e-08
-1.452624e-07	 2.579673e-07	 -1.767327e-08
-1.183260e-07	 2.002772e-07	 5.568349e-08
-1.113987e-07	 1.968237e-07	 -3.430260e-08
0	 0	 -4.851121e-08
0	 0	 4.851121e-08
-1.673382e-07	 2.832347e-07	 -1.478772e-16
0	 0	 7.874835e-08
0	 0	 -7.874835e-08
-1.183260e-07	 2.002772e-07	 -5.568349e-08
-1.113987e-07	 1.968237e-07	 3.430260e-08
-1.575416e-07	 2.783507e-07	 5.160555e-16
-6.014087e-08	 1.065719e-07	 4.742583e-08
-1.181793e-07	 1.998981e-07	 5.883486e-08
-1.547225e-07	 2.620500e-07	 -3.186263e-08
-1.113880e-07	 1.965495e-07	 -3.625974e-08
-1.451929e-07	 2.572873e-07	 1.964442e-08
-1.451929e-07	 2.572873e-07	 -1.964442e-08
0	 0	 8.320505e-08
-6.408815e-08	 1.085447e-07	 7.692320e-08
-1.671307e-07	 2.826986e-07	 -2.130893e-16
0	 0	 -8.320505e-08
-1.575264e-07	 2.779630e-07	 7.465927e-16
0	 0	 -5.127901e-08
-6.014087e-08	 1.065719e-07	 -4.742583e-08
0	 0	 5.127901e-08
-1.547225e-07	 2.620500e-07	 3.186263e-08
-6.408816e-08	 1.085446e-07	 -7.692320e-08
-1.181793e-07	 1.998981e-07	 -5.883486e-08
-1.113880e-07	 1.965495e-07	 3.625974e-08
0	 0	 8.765624e-08
-1.180307e-07	 1.995120e-07	 6.198232e-08
-1.180307e-07	 1.995120e-07	 -6.198232e-08
0	 0	 -8.765624e-08
0	 0	 -5.404308e-08
-1.113822e-07	 1.962720e-07	 3.821422e-08
0	 0	 5.404307e-08
-1.113822e-07	 1.962721e-07	 -3.821422e-08
-1.669206e-07	 2.821525e-07	 -2.779916e-16
-1.575182e-07	 2.775706e-07	 9.767265e-16
-6.392813e-08	 1.081331e-07	 8.455731e-08
-6.012812e-08	 1.062733e-07	 -5.216652e-08
-1.113842e-07	 1.959872e-07	 4.016654e-08
-6.012812e-08	 1.062733e-07	 5.216652e-08
0	 0	 9.210239e-08
-1.178779e-07	 1.991108e-07	 6.512623e-08
-1.667045e-07	 2.815851e-07	 -3.430166e-16
-1.543362e-07	 2.610563e-07	 -3.502478e-08
-1.178779e-07	 1.991107e-07	 -6.512623e-08
-6.392814e-08	 1.081330e-07	 -8.455731e-08
0	 0	 -9.210239e-08
0	 0	 -5.680406e-08
-1.113842e-07	 1.959872e-07	 -4.016654e-08
-1.575210e-07	 2.771678e-07	 1.208244e-15
-1.451621e-07	 2.565665e-07	 2.160808e-08
0	 0	 5.680406e-08
-1.543362e-07	 2.610563e-07	 3.502478e-08
-1.451621e-07	 2.565665e-07	 -2.160808e-08
0	 0	 7.532997e-08
-1.706850e-07	 2.821075e-07	 2.516379e-16
-1.206925e-07	 1.994802e-07	 -5.326633e-08
0	 0	 -7.532997e-08
0	 0	 -3.289887e-08
-1.570950e-07	 2.755466e-07	 5.893911e-17