# vtk DataFile Version 3.0
Unstructured Grid Example
ASCII
DATASET UNSTRUCTURED_GRID
POINTS 832 float
-1	 0	 0
-1	 0	 3.750000e-01
-1	 0	 7.500000e-01
-1	 0	 1.125000e+00
-1	 0	 1.500000e+00
-1	 0	 1.875000e+00
-1	 0	 2.250000e+00
-1	 0	 2.625000e+00
-1	 0	 3
-9.875000e-01	 0	 0
-9.875000e-01	 0	 1.500000e+00
-9.875000e-01	 0	 3
-9.875000e-01	 0	 2.250000e+00
-9.875000e-01	 0	 7.500000e-01
-9.833054e-01	 -1.819631e-01	 7.500000e-01
-9.833054e-01	 -1.819631e-01	 0
-9.833054e-01	 -1.819631e-01	 1.500000e+00
-9.833054e-01	 -1.819631e-01	 3.000000e+00
-9.833054e-01	 1.819631e-01	 2.250000e+00
-9.833054e-01	 1.819631e-01	 0
-9.833054e-01	 1.819631e-01	 1.500000e+00
-9.833054e-01	 1.819631e-01	 3.000000e+00
-9.833054e-01	 1.819631e-01	 7.500000e-01
-9.833054e-01	 -1.819631e-01	 2.250000e+00
-9.750000e-01	 0	 7.500000e-01
-9.750000e-01	 0	 1.125000e+00
-9.750000e-01	 0	 0
-9.750000e-01	 0	 3.750000e-01
-9.750000e-01	 0	 1.875000e+00
-9.750000e-01	 0	 2.625000e+00
-9.750000e-01	 0	 3
-9.750000e-01	 0	 1.500000e+00
-9.750000e-01	 0	 2.250000e+00
-9.625000e-01	 0	 1.500000e+00
-9.625000e-01	 0	 2.250000e+00
-9.625000e-01	 0	 0
-9.625000e-01	 0	 7.500000e-01
-9.625000e-01	 0	 3
-9.587227e-01	 -1.774140e-01	 0
-9.587227e-01	 -1.774140e-01	 3.000000e+00
-9.587227e-01	 -1.774140e-01	 1.500000e+00
-9.587227e-01	 1.774140e-01	 0
-9.587227e-01	 1.774140e-01	 3.000000e+00
-9.587227e-01	 1.774140e-01	 1.500000e+00
-9.587227e-01	 1.774140e-01	 7.500000e-01
-9.587227e-01	 -1.774140e-01	 7.500000e-01
-9.587227e-01	 -1.774140e-01	 2.250000e+00
-9.587227e-01	 1.774140e-01	 2.250000e+00
-9.500000e-01	 0	 0
-9.500000e-01	 0	 3.750000e-01
-9.500000e-01	 0	 1.125000e+00
-9.500000e-01	 0	 1.500000e+00
-9.500000e-01	 0	 1.875000e+00
-9.500000e-01	 0	 2.250000e+00
-9.500000e-01	 0	 2.625000e+00
-9.500000e-01	 0	 3
-9.500000e-01	 0	 7.500000e-01
-9.341401e-01	 -1.728649e-01	 1.500000e+00
-9.341401e-01	 -1.728649e-01	 0
-9.341401e-01	 -1.728649e-01	 3.000000e+00
-9.341401e-01	 1.728649e-01	 2.250000e+00
-9.341401e-01	 1.728649e-01	 0
-9.341401e-01	 1.728649e-01	 1.500000e+00
-9.341401e-01	 1.728649e-01	 3.000000e+00
-9.341401e-01	 -1.728649e-01	 7.500000e-01
-9.341401e-01	 -1.728649e-01	 2.250000e+00
-9.341401e-01	 1.728649e-01	 7.500000e-01
-9.297883e-01	 -3.680947e-01	 1.125000e+00
-9.297883e-01	 -3.680947e-01	 0
-9.297883e-01	 -3.680947e-01	 7.500000e-01
-9.297883e-01	 -3.680947e-01	 1.500000e+00
-9.297883e-01	 -3.680947e-01	 1.875000e+00
-9.297883e-01	 -3.680947e-01	 2.250000e+00
-9.297883e-01	 -3.680947e-01	 2.625000e+00
-9.297883e-01	 -3.680947e-01	 3.000000e+00
-9.297883e-01	 -3.680947e-01	 3.750000e-01
-9.297883e-01	 3.680947e-01	 3.750000e-01
-9.297883e-01	 3.680947e-01	 2.250000e+00
-9.297883e-01	 3.680947e-01	 2.625000e+00
-9.297883e-01	 3.680947e-01	 0
-9.297883e-01	 3.680947e-01	 7.500000e-01
-9.297883e-01	 3.680947e-01	 1.500000e+00
-9.297883e-01	 3.680947e-01	 1.875000e+00
-9.297883e-01	 3.680947e-01	 3.000000e+00
-9.297883e-01	 3.680947e-01	 1.125000e+00
-9.181659e-01	 3.634935e-01	 7.500000e-01
-9.181659e-01	 -3.634935e-01	 0
-9.181659e-01	 -3.634935e-01	 7.500000e-01
-9.181659e-01	 -3.634935e-01	 2.250000e+00
-9.181659e-01	 -3.634935e-01	 3
-9.181659e-01	 3.634935e-01	 0
-9.181659e-01	 3.634935e-01	 2.250000e+00
-9.181659e-01	 3.634935e-01	 3
-9.181659e-01	 -3.634935e-01	 1.500000e+00
-9.181659e-01	 3.634935e-01	 1.500000e+00
-9.065436e-01	 -3.588923e-01	 1.125000e+00
-9.065436e-01	 -3.588923e-01	 2.625000e+00
-9.065436e-01	 -3.588923e-01	 0
-9.065436e-01	 -3.588923e-01	 3.750000e-01
-9.065436e-01	 -3.588923e-01	 1.500000e+00
-9.065436e-01	 -3.588923e-01	 3
-9.065436e-01	 3.588923e-01	 2.625000e+00
-9.065436e-01	 3.588923e-01	 1.125000e+00
-9.065436e-01	 3.588923e-01	 0
-9.065436e-01	 3.588923e-01	 3.750000e-01
-9.065436e-01	 3.588923e-01	 3
-9.065436e-01	 -3.588923e-01	 7.500000e-01
-9.065436e-01	 -3.588923e-01	 1.875000e+00
-9.065436e-01	 3.588923e-01	 1.875000e+00
-9.065436e-01	 3.588923e-01	 1.500000e+00
-9.065436e-01	 -3.588923e-01	 2.250000e+00
-9.065436e-01	 3.588923e-01	 7.500000e-01
-9.065436e-01	 3.588923e-01	 2.250000e+00
-8.949212e-01	 3.542912e-01	 1.500000e+00
-8.949212e-01	 -3.542912e-01	 1.500000e+00
-8.949212e-01	 -3.542912e-01	 0
-8.949212e-01	 -3.542912e-01	 3.000000e+00
-8.949212e-01	 3.542912e-01	 0
-8.949212e-01	 3.542912e-01	 3.000000e+00
-8.949212e-01	 -3.542912e-01	 2.250000e+00
-8.949212e-01	 -3.542912e-01	 7.500000e-01
-8.949212e-01	 3.542912e-01	 2.250000e+00
-8.949212e-01	 3.542912e-01	 7.500000e-01
-8.832989e-01	 -3.496900e-01	 1.125000e+00
-8.832989e-01	 -3.496900e-01	 1.875000e+00
-8.832989e-01	 -3.496900e-01	 2.625000e+00
-8.832989e-01	 -3.496900e-01	 2.250000e+00
-8.832989e-01	 3.496900e-01	 1.125000e+00
-8.832989e-01	 -3.496900e-01	 0
-8.832989e-01	 -3.496900e-01	 3.000000e+00
-8.832989e-01	 -3.496900e-01	 3.750000e-01
-8.832989e-01	 -3.496900e-01	 7.500000e-01
-8.832989e-01	 3.496900e-01	 3.750000e-01
-8.832989e-01	 3.496900e-01	 7.500000e-01
-8.832989e-01	 3.496900e-01	 2.250000e+00
-8.832989e-01	 3.496900e-01	 2.625000e+00
-8.832989e-01	 3.496900e-01	 0
-8.832989e-01	 3.496900e-01	 1.875000e+00
-8.832989e-01	 3.496900e-01	 3.000000e+00
-8.832989e-01	 -3.496900e-01	 1.500000e+00
-8.832989e-01	 3.496900e-01	 1.500000e+00
-8.369955e-01	 -5.472098e-01	 0
-8.369955e-01	 -5.472098e-01	 7.500000e-01
-8.369955e-01	 -5.472098e-01	 1.500000e+00
-8.369955e-01	 -5.472098e-01	 2.250000e+00
-8.369955e-01	 -5.472098e-01	 3
-8.369955e-01	 5.472098e-01	 0
-8.369955e-01	 5.472098e-01	 7.500000e-01
-8.369955e-01	 5.472098e-01	 1.500000e+00
-8.369955e-01	 5.472098e-01	 2.250000e+00
-8.369955e-01	 5.472098e-01	 3
-8.160706e-01	 -5.335295e-01	 7.500000e-01
-8.160706e-01	 5.335295e-01	 7.500000e-01
-8.160706e-01	 -5.335295e-01	 1.500000e+00
-8.160706e-01	 -5.335295e-01	 2.250000e+00
-8.160706e-01	 5.335295e-01	 1.500000e+00
-8.160706e-01	 5.335295e-01	 2.250000e+00
-8.160706e-01	 -5.335295e-01	 0
-8.160706e-01	 -5.335295e-01	 3.000000e+00
-8.160706e-01	 5.335295e-01	 0
-8.160706e-01	 5.335295e-01	 3.000000e+00
-7.951457e-01	 -5.198493e-01	 7.500000e-01
-7.951457e-01	 5.198493e-01	 7.500000e-01
-7.951457e-01	 -5.198493e-01	 0
-7.951457e-01	 -5.198493e-01	 1.500000e+00
-7.951457e-01	 -5.198493e-01	 2.250000e+00
-7.951457e-01	 -5.198493e-01	 3
-7.951457e-01	 5.198493e-01	 0
-7.951457e-01	 5.198493e-01	 1.500000e+00
-7.951457e-01	 5.198493e-01	 2.250000e+00
-7.951457e-01	 5.198493e-01	 3
-7.071068e-01	 -7.071068e-01	 0
-7.071068e-01	 -7.071068e-01	 3.750000e-01
-7.071068e-01	 -7.071068e-01	 7.500000e-01
-7.071068e-01	 -7.071068e-01	 1.125000e+00
-7.071068e-01	 -7.071068e-01	 1.500000e+00
-7.071068e-01	 -7.071068e-01	 1.875000e+00
-7.071068e-01	 -7.071068e-01	 2.250000e+00
-7.071068e-01	 -7.071068e-01	 2.625000e+00
-7.071068e-01	 -7.071068e-01	 3.000000e+00
-7.071068e-01	 7.071068e-01	 0
-7.071068e-01	 7.071068e-01	 3.750000e-01
-7.071068e-01	 7.071068e-01	 7.500000e-01
-7.071068e-01	 7.071068e-01	 1.125000e+00
-7.071068e-01	 7.071068e-01	 1.500000e+00
-7.071068e-01	 7.071068e-01	 1.875000e+00
-7.071068e-01	 7.071068e-01	 2.250000e+00
-7.071068e-01	 7.071068e-01	 2.625000e+00
-7.071068e-01	 7.071068e-01	 3.000000e+00
-6.982679e-01	 -6.982679e-01	 7.500000e-01
-6.982679e-01	 6.982679e-01	 7.500000e-01
-6.982679e-01	 -6.982679e-01	 0
-6.982679e-01	 -6.982679e-01	 2.250000e+00
-6.982679e-01	 -6.982679e-01	 3.000000e+00
-6.982679e-01	 6.982679e-01	 0
-6.982679e-01	 6.982679e-01	 2.250000e+00
-6.982679e-01	 6.982679e-01	 3.000000e+00
-6.982679e-01	 -6.982679e-01	 1.500000e+00
-6.982679e-01	 6.982679e-01	 1.500000e+00
-6.894291e-01	 -6.894291e-01	 3.750000e-01
-6.894291e-01	 -6.894291e-01	 2.625000e+00
-6.894291e-01	 -6.894291e-01	 0
-6.894291e-01	 -6.894291e-01	 1.500000e+00
-6.894291e-01	 -6.894291e-01	 2.250000e+00
-6.894291e-01	 -6.894291e-01	 3.000000e+00
-6.894291e-01	 6.894291e-01	 3.750000e-01
-6.894291e-01	 6.894291e-01	 2.625000e+00
-6.894291e-01	 -6.894291e-01	 1.875000e+00
-6.894291e-01	 6.894291e-01	 1.875000e+00
-6.894291e-01	 -6.894291e-01	 7.500000e-01
-6.894291e-01	 -6.894291e-01	 1.125000e+00
-6.894291e-01	 6.894291e-01	 0
-6.894291e-01	 6.894291e-01	 1.500000e+00
-6.894291e-01	 6.894291e-01	 2.250000e+00
-6.894291e-01	 6.894291e-01	 3.000000e+00
-6.894291e-01	 6.894291e-01	 7.500000e-01
-6.894291e-01	 6.894291e-01	 1.125000e+00
-6.805903e-01	 6.805903e-01	 7.500000e-01
-6.805903e-01	 -6.805903e-01	 7.500000e-01
-6.805903e-01	 -6.805903e-01	 0
-6.805903e-01	 -6.805903e-01	 1.500000e+00
-6.805903e-01	 -6.805903e-01	 3.000000e+00
-6.805903e-01	 6.805903e-01	 0
-6.805903e-01	 6.805903e-01	 1.500000e+00
-6.805903e-01	 6.805903e-01	 3.000000e+00
-6.805903e-01	 6.805903e-01	 2.250000e+00
-6.805903e-01	 -6.805903e-01	 2.250000e+00
-6.717514e-01	 -6.717514e-01	 2.625000e+00
-6.717514e-01	 6.717514e-01	 2.625000e+00
-6.717514e-01	 -6.717514e-01	 0
-6.717514e-01	 -6.717514e-01	 3.750000e-01
-6.717514e-01	 -6.717514e-01	 7.500000e-01
-6.717514e-01	 -6.717514e-01	 1.125000e+00
-6.717514e-01	 -6.717514e-01	 1.875000e+00
-6.717514e-01	 -6.717514e-01	 3.000000e+00
-6.717514e-01	 -6.717514e-01	 2.250000e+00
-6.717514e-01	 6.717514e-01	 1.500000e+00
-6.717514e-01	 6.717514e-01	 0
-6.717514e-01	 6.717514e-01	 3.750000e-01
-6.717514e-01	 6.717514e-01	 7.500000e-01
-6.717514e-01	 6.717514e-01	 1.125000e+00
-6.717514e-01	 6.717514e-01	 1.875000e+00
-6.717514e-01	 6.717514e-01	 3.000000e+00
-6.717514e-01	 -6.717514e-01	 1.500000e+00
-6.717514e-01	 6.717514e-01	 2.250000e+00
-5.472098e-01	 -8.369955e-01	 0
-5.472098e-01	 -8.369955e-01	 7.500000e-01
-5.472098e-01	 -8.369955e-01	 1.500000e+00
-5.472098e-01	 -8.369955e-01	 2.250000e+00
-5.472098e-01	 -8.369955e-01	 3
-5.472098e-01	 8.369955e-01	 0
-5.472098e-01	 8.369955e-01	 7.500000e-01
-5.472098e-01	 8.369955e-01	 1.500000e+00
-5.472098e-01	 8.369955e-01	 2.250000e+00
-5.472098e-01	 8.369955e-01	 3
-5.335295e-01	 -8.160706e-01	 1.500000e+00
-5.335295e-01	 -8.160706e-01	 2.250000e+00
-5.335295e-01	 8.160706e-01	 0
-5.335295e-01	 8.160706e-01	 3.000000e+00
[...]
POINT_DATA 832
VECTORS displacement float
0	 0	 -1.442525e-10
-8.942993e-10	 -1.287091e-10	 -1.070388e-10
-1.275570e-09	 -1.676971e-10	 1.991017e-17
-8.942990e-10	 -1.287092e-10	 1.070389e-10
6.094231e-16	 -1.549367e-16	 1.442525e-10
8.943001e-10	 1.287089e-10	 1.070388e-10
1.275571e-09	 1.676969e-10	 -7.916445e-17
8.942998e-10	 1.287090e-10	 -1.070390e-10
0	 0	 -1.442526e-10
0	 0	 -1.144033e-10
6.107092e-16	 -1.747696e-16	 1.144033e-10
0	 0	 -1.144035e-10
1.282382e-09	 2.929408e-10	 -7.326332e-17
-1.282381e-09	 -2.929411e-10	 1.401101e-17
-2.230817e-09	 -4.727794e-10	 -9.927856e-18
0	 0	 -2.762903e-10
2.715917e-16	 -1.734763e-16	 2.762902e-10
0	 0	 -2.762903e-10
-4.648718e-10	 3.090391e-10	 -9.768621e-17
0	 0	 6.230983e-11
7.912719e-16	 -1.921830e-16	 -6.230979e-11
0	 0	 6.230964e-11
4.648729e-10	 -3.090393e-10	 3.708368e-17
2.230818e-09	 4.727791e-10	 -4.634791e-17
-1.285753e-09	 -4.157605e-10	 8.134946e-18
-8.968750e-10	 -2.872532e-10	 5.673243e-11
0	 0	 -8.511275e-11
-8.968754e-10	 -2.872531e-10	 -5.673241e-11
8.968762e-10	 2.872529e-10	 5.673238e-11
8.968758e-10	 2.872530e-10	 -5.673251e-11
0	 0	 -8.511285e-11
6.115560e-16	 -1.945710e-16	 8.511274e-11
1.285754e-09	 4.157603e-10	 -6.738517e-17
6.121573e-16	 -2.141498e-16	 5.575572e-11
1.288549e-09	 5.383176e-10	 -6.149598e-17
0	 0	 -5.575574e-11
-1.288548e-09	 -5.383179e-10	 2.247886e-18
0	 0	 -5.575583e-11
0	 0	 -1.638289e-10
0	 0	 -1.638290e-10
2.814683e-16	 -2.252092e-16	 1.638289e-10
0	 0	 3.641091e-11
0	 0	 3.641077e-11
7.903242e-16	 -2.020084e-16	 -3.641090e-11
4.242141e-10	 -5.328913e-10	 2.150949e-17
-2.237542e-09	 -4.647618e-10	 -1.441728e-17
2.237542e-09	 4.647615e-10	 -4.186218e-17
-4.242129e-10	 5.328910e-10	 -8.210347e-17
0	 0	 -2.581788e-11
-8.938617e-10	 -4.450856e-10	 -6.244384e-12
-8.938613e-10	 -4.450858e-10	 6.244375e-12
6.122594e-16	 -2.338456e-16	 2.581786e-11
8.938625e-10	 4.450853e-10	 6.244345e-12
1.287118e-09	 6.626839e-10	 -5.558067e-17
8.938621e-10	 4.450855e-10	 -6.244454e-12
0	 0	 -2.581795e-11
-1.287117e-09	 -6.626842e-10	 -3.665486e-18
2.906887e-16	 -2.774762e-16	 5.158786e-11
0	 0	 -5.158790e-11
0	 0	 -5.158792e-11
-3.779230e-10	 7.582398e-10	 -6.652617e-17
0	 0	 1.048736e-11
7.873858e-16	 -2.115198e-16	 -1.048737e-11
0	 0	 1.048726e-11
-2.224625e-09	 -4.527801e-10	 -1.889630e-17
2.224625e-09	 4.527797e-10	 -3.738679e-17
3.779241e-10	 -7.582401e-10	 5.940853e-18
-8.086769e-10	 -2.506228e-10	 1.026618e-10
0	 0	 -1.512347e-10
-1.114833e-09	 -3.635477e-10	 -4.845180e-17
-1.577582e-16	 -2.931267e-16	 1.512346e-10
8.086766e-10	 2.506223e-10	 1.026618e-10
1.114832e-09	 3.635473e-10	 -3.010259e-18
8.086767e-10	 2.506224e-10	 -1.026618e-10
0	 0	 -1.512346e-10
-8.086768e-10	 -2.506227e-10	 -1.026619e-10
1.186927e-09	 -5.645227e-10	 1.595772e-10
-1.677797e-09	 7.849704e-10	 -9.283281e-17
-1.186927e-09	 5.645225e-10	 1.595770e-10
0	 0	 2.201909e-10
1.677798e-09	 -7.849707e-10	 3.262737e-17
7.456973e-16	 -2.012256e-16	 -2.201909e-10
-1.186926e-09	 5.645224e-10	 -1.595772e-10
0	 0	 2.201908e-10
1.186928e-09	 -5.645228e-10	 -1.595771e-10
1.664375e-09	 -8.451412e-10	 2.520646e-17
0	 0	 -1.198070e-10
-1.164188e-09	 -2.521237e-10	 -4.598885e-17
1.164187e-09	 2.521233e-10	 -5.483260e-18
0	 0	 -1.198069e-10
0	 0	 1.752142e-10
-1.664374e-09	 8.451410e-10	 -8.540636e-17
0	 0	 1.752140e-10
-1.470203e-16	 -3.217893e-16	 1.198069e-10
7.506073e-16	 -1.930272e-16	 -1.752142e-10
-8.662810e-10	 -1.110520e-10	 5.881787e-11
8.662808e-10	 1.110515e-10	 -5.881791e-11
0	 0	 -8.873822e-11
-8.662809e-10	 -1.110518e-10	 -5.881796e-11
-1.361867e-16	 -3.503116e-16	 8.873815e-11
0	 0	 -8.873817e-11
-1.162998e-09	 6.349209e-10	 8.724577e-11
1.162999e-09	 -6.349212e-10	 -8.724587e-11
0	 0	 1.309958e-10
1.162999e-09	 -6.349211e-10	 8.724590e-11
0	 0	 1.309957e-10
-1.210453e-09	 -1.422181e-10	 -4.353247e-17
8.662807e-10	 1.110513e-10	 5.881789e-11
-1.162998e-09	 6.349208e-10	 -8.724592e-11
7.550642e-16	 -1.846382e-16	 -1.309958e-10
1.210452e-09	 1.422176e-10	 -7.949493e-18
1.646924e-09	 -9.027536e-10	 1.781024e-17
-1.646923e-09	 9.027533e-10	 -7.800447e-17
7.592685e-16	 -1.763013e-16	 -8.676217e-11
-1.253866e-16	 -3.785105e-16	 5.759279e-11
0	 0	 -5.759286e-11
0	 0	 -5.759282e-11
0	 0	 8.676216e-11
0	 0	 8.676205e-11
1.256703e-09	 3.268141e-11	 -1.041470e-17
-1.256703e-09	 -3.268195e-11	 -4.107705e-17
-1.629255e-09	 9.602316e-10	 -7.059064e-17
1.629256e-09	 -9.602319e-10	 1.040203e-17
-9.200478e-10	 2.903050e-11	 1.476520e-11
9.200476e-10	 -2.903125e-11	 1.476521e-11
9.200476e-10	 -2.903103e-11	 -1.476524e-11
1.300930e-09	 -7.958228e-11	 -1.288797e-17
1.132318e-09	 -7.023983e-10	 -1.471818e-11
0	 0	 -2.600776e-11
0	 0	 -2.600772e-11
-9.200477e-10	 2.903072e-11	 -1.476527e-11
-1.300930e-09	 7.958171e-11	 -3.861385e-17
1.132317e-09	 -7.023982e-10	 1.471818e-11
1.605939e-09	 -1.016143e-09	 2.962645e-18
-1.605938e-09	 1.016142e-09	 -6.314575e-17
-1.132317e-09	 7.023980e-10	 1.471809e-11
0	 0	 4.171003e-11
-1.132316e-09	 7.023980e-10	 -1.471821e-11
0	 0	 4.170994e-11
-1.143798e-16	 -4.068258e-16	 2.600769e-11
7.629725e-16	 -1.676948e-16	 -4.171004e-11
0	 0	 5.760322e-11
4.119343e-10	 4.490427e-10	 -8.114264e-17
-5.088609e-16	 -4.908734e-16	 -5.760335e-11
-4.119350e-10	 -4.490434e-10	 3.629762e-17
0	 0	 5.760338e-11
0	 0	 2.496938e-10
1.676960e-09	 -1.028968e-09	 9.247523e-18
5.153131e-16	 -1.041350e-16	 -2.496938e-10
-1.676959e-09	 1.028967e-09	 -6.705213e-17
0	 0	 2.496937e-10
3.137346e-10	 6.001617e-10	 -6.787567e-17
1.744204e-09	 -9.329290e-10	 -4.444970e-20
-4.890924e-16	 -5.222878e-16	 -3.389793e-11
-3.137353e-10	 -6.001624e-10	 2.301092e-17
5.393184e-16	 -6.828126e-17	 -1.519317e-10
-1.744203e-09	 9.329289e-10	 -5.775745e-17
0	 0	 3.389782e-11
0	 0	 3.389795e-11
0	 0	 1.519316e-10
0	 0	 1.519316e-10
2.082161e-10	 7.489494e-10	 -5.461075e-17
1.799129e-09	 -8.270729e-10	 -9.327293e-18
0	 0	 1.028168e-11
-4.677709e-16	 -5.530196e-16	 -1.028177e-11
-2.082167e-10	 -7.489501e-10	 9.726248e-18
0	 0	 1.028177e-11
0	 0	 5.433393e-11
5.622789e-16	 -3.136482e-17	 -5.433396e-11
-1.799128e-09	 8.270729e-10	 -4.847185e-17
0	 0	 5.433388e-11
0	 0	 1.646207e-10
6.918390e-10	 7.741222e-10	 1.209314e-10
9.868005e-10	 1.102463e-09	 -9.087776e-17
6.918386e-10	 7.741218e-10	 -1.209316e-10
-6.407399e-16	 -6.267848e-16	 -1.646208e-10
-6.918398e-10	 -7.741230e-10	 -1.209315e-10
-9.868014e-10	 -1.102464e-09	 5.424341e-17
-6.918395e-10	 -7.741226e-10	 1.209316e-10
0	 0	 1.646209e-10
0	 0	 2.983055e-11
1.671549e-10	 3.173444e-12	 1.842544e-11
2.037790e-10	 -2.151841e-12	 -3.125096e-17
1.671549e-10	 3.173535e-12	 -1.842551e-11
1.606567e-16	 1.679594e-16	 -2.983061e-11
-1.671546e-10	 -3.173226e-12	 -1.842550e-11
-2.037788e-10	 2.152079e-12	 -2.213320e-17
-1.671547e-10	 -3.173317e-12	 1.842546e-11
0	 0	 2.983056e-11
9.775183e-10	 1.122907e-09	 -8.223574e-17
3.091377e-10	 1.025953e-10	 -3.117946e-17
0	 0	 1.306466e-10
-9.775192e-10	 -1.122908e-09	 4.558869e-17
0	 0	 1.306468e-10
0	 0	 2.431172e-11
-3.091374e-10	 -1.025950e-10	 -2.220819e-17
0	 0	 2.431174e-11
-6.389367e-16	 -6.313112e-16	 -1.306467e-10
1.833391e-16	 1.905561e-16	 -2.431178e-11
6.737259e-10	 7.954029e-10	 6.200684e-11
-6.737264e-10	 -7.954034e-10	 6.200699e-11
0	 0	 9.733422e-11
-6.367525e-16	 -6.353458e-16	 -9.733434e-11
-9.655560e-10	 -1.140328e-09	 3.696551e-17
0	 0	 9.733438e-11
2.965191e-10	 1.316653e-10	 1.380592e-11
-2.965189e-10	 -1.316652e-10	 1.380593e-11
-6.737268e-10	 -7.954038e-10	 -6.200692e-11
-2.965188e-10	 -1.316651e-10	 -1.380597e-11
9.655551e-10	 1.140327e-09	 -7.362503e-17
6.737256e-10	 7.954026e-10	 -6.200698e-11
0	 0	 1.877971e-11
2.058956e-16	 2.131320e-16	 -1.877977e-11
-4.125773e-10	 -2.053810e-10	 -2.228806e-17
0	 0	 1.877972e-11
4.125776e-10	 2.053813e-10	 -3.110288e-17
2.965192e-10	 1.316654e-10	 -1.380598e-11
5.157253e-10	 3.078726e-10	 -3.102635e-17
9.534862e-10	 1.157433e-09	 -6.500402e-17
0	 0	 6.402997e-11
-6.344082e-16	 -6.391932e-16	 -6.403007e-11
0	 0	 6.403010e-11
0	 0	 1.323903e-11
2.282365e-16	 2.354939e-16	 -1.323909e-11
0	 0	 1.323905e-11
-5.157250e-10	 -3.078723e-10	 -2.236784e-17
-9.534871e-10	 -1.157434e-09	 2.833210e-17
-6.512243e-10	 -8.121058e-10	 2.919792e-12
-4.250598e-10	 -2.595251e-10	 9.165063e-12
0	 0	 3.001226e-11
6.512239e-10	 8.121053e-10	 2.919689e-12
9.376090e-10	 1.171067e-09	 -5.634382e-17
6.512235e-10	 8.121049e-10	 -2.919799e-12
-6.512247e-10	 -8.121061e-10	 -2.919756e-12
0	 0	 3.001237e-11
-9.376099e-10	 -1.171068e-09	 1.965923e-17
2.506285e-16	 2.580475e-16	 -7.692607e-12
0	 0	 7.692547e-12
4.250600e-10	 2.595253e-10	 9.165052e-12
6.202653e-10	 4.116459e-10	 -3.095418e-17
4.250601e-10	 2.595254e-10	 -9.165113e-12
-4.250596e-10	 -2.595249e-10	 -9.165108e-12
0	 0	 7.692559e-12
-6.315219e-16	 -6.425636e-16	 -3.001235e-11
-6.202649e-10	 -4.116455e-10	 -2.244353e-17
0	 0	 1.423944e-10
6.664852e-10	 9.715589e-10	 -7.526221e-17
-5.621724e-16	 -5.797236e-16	 -1.423945e-10
-6.664860e-10	 -9.715597e-10	 4.793039e-17
0	 0	 1.423945e-10
0	 0	 -1.925736e-10
-8.037758e-10	 1.452372e-09	 -7.167213e-17
-1.355547e-16	 5.424049e-16	 1.925735e-10
8.037756e-10	 -1.452371e-09	 2.451195e-17
0	 0	 -1.925734e-10
-5.886670e-16	 -5.633164e-16	 -8.663360e-11
-7.798513e-10	 -8.995457e-10	 3.282941e-17
0	 0	 -1.154996e-10
0	 0	 -1.154995e-10
-9.391246e-17	 5.703322e-16	 1.154995e-10
7.109994e-10	 -1.516474e-09	 1.436122e-17
7.798505e-10	 8.995449e-10	 -6.018367e-17
0	 0	 8.663351e-11
0	 0	 8.663364e-11
-7.109996e-10	 1.516475e-09	 -6.153958e-17
-6.085140e-10	 1.568315e-09	 -5.141146e-17
8.885778e-10	 8.176836e-10	 -4.511383e-17
0	 0	 3.097760e-11
-6.139488e-16	 -5.446691e-16	 -3.097767e-11
-8.885786e-10	 -8.176844e-10	 1.773696e-17
0	 0	 3.097769e-11
0	 0	 -3.863641e-11
-5.134055e-17	 5.975357e-16	 3.863633e-11
6.085139e-10	 -1.568314e-09	 4.214794e-18
0	 0	 -3.863633e-11
-7.219049e-11	 -2.876718e-10	 2.864183e-11
-4.027524e-10	 1.009087e-09	 1.302742e-10
0	 0	 -4.107648e-11
-1.272940e-10	 -4.071410e-10	 -3.137714e-17
-3.482270e-16	 -2.243989e-16	 4.107643e-11
7.218984e-11	 2.876714e-10	 2.864185e-11
0	 0	 -4.107641e-11
0	 0	 -1.760763e-10
-5.556707e-10	 1.441025e-09	 -9.425715e-17
-2.694725e-16	 8.385472e-16	 1.760762e-10
4.027519e-10	 -1.009086e-09	 1.302743e-10
5.556703e-10	 -1.441023e-09	 5.469014e-17
4.027521e-10	 -1.009086e-09	 -1.302742e-10
0	 0	 -1.760761e-10
-7.219030e-11	 -2.876717e-10	 -2.864189e-11
1.272935e-10	 4.071406e-10	 1.383804e-17
7.219003e-11	 2.876715e-10	 -2.864183e-11
-4.027523e-10	 1.009087e-09	 -1.302744e-10
-3.811686e-16	 -2.123384e-16	 3.118511e-11
-2.562391e-16	 8.456917e-16	 1.399971e-10
-1.257182e-11	 -4.542948e-10	 -2.813149e-17
0	 0	 -3.118515e-11
1.257128e-11	 4.542945e-10	 1.058764e-17
0	 0	 -3.118510e-11
0	 0	 -1.399973e-10
-6.154973e-10	 1.426348e-09	 -8.576546e-17
6.154970e-10	 -1.426347e-09	 4.618816e-17
0	 0	 -1.399971e-10
-1.000765e-10	 4.994340e-10	 7.358379e-18
6.726393e-10	 -1.408226e-09	 3.771553e-17
-4.694645e-10	 9.857659e-10	 6.897471e-11
4.694642e-10	 -9.857648e-10	 -6.897470e-11
0	 0	 -2.147107e-11
6.861777e-11	 -3.436614e-10	 -1.208172e-11
0	 0	 -2.147103e-11
-4.138331e-16	 -1.999914e-16	 2.147103e-11
0	 0	 -1.046018e-10
-4.694644e-10	 9.857655e-10	 -6.897486e-11
-2.428983e-16	 8.522551e-16	 1.046017e-10
0	 0	 -1.046016e-10
6.861755e-11	 -3.436615e-10	 1.208167e-11
-6.861831e-11	 3.436611e-10	 1.208169e-11
1.000759e-10	 -4.994343e-10	 -2.490693e-17
-6.726396e-10	 1.408227e-09	 -7.730286e-17
4.694641e-10	 -9.857644e-10	 6.897477e-11
-6.861809e-11	 3.436613e-10	 -1.208167e-11
-4.461649e-16	 -1.876610e-16	 1.170541e-11
-2.124320e-10	 5.446583e-10	 4.128979e-18
7.298049e-10	 -1.389807e-09	 2.922894e-17
0	 0	 -6.919997e-11
0	 0	 -6.919983e-11
-2.296219e-16	 8.585559e-16	 6.919986e-11
0	 0	 -1.170545e-11
0	 0	 -1.170541e-11
2.124313e-10	 -5.446586e-10	 -2.168217e-17
-7.298052e-10	 1.389808e-09	 -6.882622e-17
2.091406e-10	 -3.978960e-10	 -4.589820e-12
0	 0	 -1.731864e-12
-2.091415e-10	 3.978956e-10	 -4.589809e-12
0	 0	 -1.731837e-12
-4.785350e-16	 -1.748442e-16	 1.731833e-12
0	 0	 -3.307602e-11
0	 0	 -3.307591e-11
-5.335606e-10	 9.565457e-10	 7.514688e-12
5.335601e-10	 -9.565441e-10	 7.514733e-12
5.335603e-10	 -9.565446e-10	 -7.514695e-12
2.091409e-10	 -3.978959e-10	 4.589784e-12
3.269924e-10	 -5.892037e-10	 -1.843588e-17
-3.269930e-10	 5.892035e-10	 8.778995e-19
-2.091412e-10	 3.978957e-10	 4.589810e-12
-2.159669e-16	 8.642797e-16	 3.307593e-11
-5.335604e-10	 9.565452e-10	 -7.514804e-12
7.857038e-10	 -1.366262e-09	 2.070459e-17
-7.857041e-10	 1.366264e-09	 -6.031210e-17
-3.094680e-10	 -1.650501e-09	 2.096267e-17
-1.412735e-10	 3.170454e-10	 -9.396715e-17
0	 0	 -1.815086e-10
-1.967956e-16	 2.938100e-16	 1.815087e-10
0	 0	 -1.815087e-10
0	 0	 -4.817712e-11
-2.614743e-16	 9.257160e-16	 4.817698e-11
0	 0	 -4.817690e-11
3.094677e-10	 1.650501e-09	 -2.882090e-17
1.412731e-10	 -3.170440e-10	 6.279803e-17
-2.624699e-10	 -1.662998e-09	 1.614213e-17
0	 0	 -1.046887e-10
0	 0	 -1.046888e-10
-3.345665e-10	 2.817115e-10	 -7.572756e-17
3.345661e-10	 -2.817102e-10	 4.453403e-17
0	 0	 -2.926519e-11
0	 0	 -2.926502e-11
2.624695e-10	 1.662999e-09	 -2.401645e-17
-2.726663e-16	 9.248317e-16	 2.926507e-11
-2.630717e-16	 3.064573e-16	 1.046888e-10
-2.833707e-16	 9.210502e-16	 1.029959e-11
0	 0	 -2.812666e-11
-3.299553e-16	 3.187251e-16	 2.812667e-11
0	 0	 -2.812670e-11
0	 0	 -1.029968e-11
0	 0	 -1.029956e-11
2.115466e-10	 1.658363e-09	 -1.922079e-17
-2.115471e-10	 -1.658363e-09	 1.133022e-17
-5.294909e-10	 2.432775e-10	 -5.749800e-17
5.294905e-10	 -2.432762e-10	 2.627989e-17
0	 0	 -1.022327e-10
-4.612386e-11	 -7.361099e-10	 -8.156897e-11
-5.088600e-11	 -1.079571e-09	 6.381111e-17
-4.612395e-11	 -7.361095e-10	 8.156909e-11
-1.672842e-16	 7.485736e-16	 1.022328e-10
4.612364e-11	 7.361109e-10	 8.156902e-11
5.088576e-11	 1.079572e-09	 -6.265156e-17
4.612373e-11	 7.361105e-10	 -8.156914e-11
0	 0	 -1.022329e-10
0	 0	 -8.015969e-11
-1.953729e-16	 7.502117e-16	 8.015977e-11
0	 0	 -8.015985e-11
1.449220e-10	 1.085890e-09	 -5.545411e-17
-1.449223e-10	 -1.085889e-09	 5.660935e-17
-2.369488e-10	 -1.088687e-09	 4.944027e-17
-1.625306e-10	 -7.378496e-10	 3.729191e-11
0	 0	 -5.866837e-11
-1.625305e-10	 -7.378500e-10	 -3.729182e-11
1.625302e-10	 7.378510e-10	 3.729186e-11
1.625303e-10	 7.378506e-10	 -3.729195e-11
0	 0	 -5.866851e-11
-2.233091e-16	 7.512403e-16	 5.866844e-11
2.369485e-10	 1.088688e-09	 -4.828940e-17
-2.509891e-16	 7.519822e-16	 3.712404e-11
3.289024e-10	 1.090893e-09	 -4.111091e-17
0	 0	 -3.712398e-11
-3.289027e-10	 -1.090892e-09	 4.225742e-17
0	 0	 -3.712409e-11
0	 0	 -1.500233e-11
-2.784116e-10	 -7.341791e-10	 7.140514e-12
-2.784118e-10	 -7.341787e-10	 -7.140447e-12
-2.788754e-16	 7.520130e-16	 1.500238e-11
2.784112e-10	 7.341801e-10	 -7.140486e-12
4.222601e-10	 1.088725e-09	 -3.389556e-17
2.784114e-10	 7.341797e-10	 7.140421e-12
0	 0	 -1.500243e-11
-4.222605e-10	 -1.088724e-09	 3.503769e-17
-4.222606e-10	 -1.088724e-09	 -3.949463e-17
0	 0	 1.500233e-11
-2.784116e-10	 -7.341791e-10	 -7.140516e-12
-2.784118e-10	 -7.341787e-10	 7.140440e-12
-3.163540e-16	 6.876432e-16	 -1.500239e-11
2.784112e-10	 7.341800e-10	 7.140471e-12
4.222601e-10	 1.088725e-09	 1.692492e-17
2.784114e-10	 7.341796e-10	 -7.140440e-12
0	 0	 1.500241e-11
0	 0	 3.712398e-11
-3.289028e-10	 -1.090892e-09	 -4.607745e-17
0	 0	 3.712407e-11
-2.891282e-16	 6.876612e-16	 -3.712405e-11
3.289024e-10	 1.090893e-09	 2.351579e-17
-2.620970e-16	 6.869848e-16	 -5.866845e-11
2.369484e-10	 1.088688e-09	 3.007107e-17
0	 0	 5.866837e-11
-1.625305e-10	 -7.378501e-10	 3.729182e-11
1.625301e-10	 7.378510e-10	 -3.729187e-11
1.625303e-10	 7.378506e-10	 3.729193e-11
0	 0	 5.866849e-11
-2.369488e-10	 -1.088687e-09	 -5.262493e-17
-1.625306e-10	 -7.378497e-10	 -3.729192e-11
-1.449223e-10	 -1.085889e-09	 -5.915935e-17
1.449220e-10	 1.085890e-09	 3.661344e-17
0	 0	 8.015969e-11
-2.348150e-16	 6.860349e-16	 -8.015978e-11
0	 0	 8.015983e-11
0	 0	 1.022327e-10
-4.612388e-11	 -7.361100e-10	 8.156897e-11
-5.088603e-11	 -1.079571e-09	 -6.572612e-17
-4.612399e-11	 -7.361096e-10	 -8.156910e-11
-2.073969e-16	 6.844908e-16	 -1.022328e-10
4.612361e-11	 7.361109e-10	 -8.156904e-11
5.088574e-11	 1.079572e-09	 4.318821e-17
4.612372e-11	 7.361105e-10	 8.156912e-11
0	 0	 1.022329e-10
-5.294909e-10	 2.432776e-10	 5.114645e-17
5.294906e-10	 -2.432762e-10	 -4.137196e-17
-2.115471e-10	 -1.658363e-09	 -1.457347e-17
2.115466e-10	 1.658363e-09	 1.046914e-18
0	 0	 1.029967e-11
0	 0	 1.029954e-11
0	 0	 2.812666e-11
-3.670939e-16	 2.620290e-16	 -2.812668e-11
0	 0	 2.812668e-11
-2.436593e-16	 9.884832e-16	 -1.029960e-11
-3.009740e-16	 2.500573e-16	 -1.046888e-10
-2.335178e-16	 9.922095e-16	 -2.926508e-11
2.624695e-10	 1.662999e-09	 4.617806e-18
0	 0	 2.926519e-11
0	 0	 2.926500e-11
-3.345665e-10	 2.817116e-10	 7.054592e-17
3.345662e-10	 -2.817102e-10	 -6.076367e-17
0	 0	 1.046887e-10
0	 0	 1.046888e-10
-2.624699e-10	 -1.662998e-09	 -1.814773e-17
1.412731e-10	 -3.170440e-10	 -8.016519e-17
3.094677e-10	 1.650501e-09	 8.199801e-18
0	 0	 4.817712e-11
-2.228615e-16	 9.928978e-16	 -4.817699e-11
0	 0	 4.817688e-11
0	 0	 1.815086e-10
-2.354626e-16	 2.376685e-16	 -1.815087e-10
0	 0	 1.815087e-10
-1.412735e-10	 3.170454e-10	 8.995522e-17
-3.094680e-10	 -1.650501e-09	 -2.173290e-17
-7.857041e-10	 1.366264e-09	 5.107986e-17
7.857038e-10	 -1.366262e-09	 -3.291447e-17
-5.335604e-10	 9.565453e-10	 7.514796e-12
-1.704451e-16	 9.209213e-16	 -3.307594e-11
2.091408e-10	 -3.978959e-10	 -4.589784e-12
3.269923e-10	 -5.892038e-10	 1.559593e-17
-3.269931e-10	 5.892034e-10	 -1.946403e-17
-2.091412e-10	 3.978957e-10	 -4.589831e-12
-5.335605e-10	 9.565458e-10	 -7.514698e-12
5.335602e-10	 -9.565440e-10	 -7.514745e-12
5.335603e-10	 -9.565445e-10	 7.514683e-12
0	 0	 3.307601e-11
0	 0	 3.307590e-11
-5.152940e-16	 -2.284582e-16	 -1.731844e-12
0	 0	 1.731865e-12
-2.091415e-10	 3.978956e-10	 4.589794e-12
0	 0	 1.731815e-12
2.091406e-10	 -3.978960e-10	 4.589813e-12
-7.298052e-10	 1.389809e-09	 5.997041e-17
2.124313e-10	 -5.446586e-10	 1.946596e-17
0	 0	 1.170545e-11
0	 0	 1.170539e-11
-1.853398e-16	 9.147111e-16	 -6.919987e-11
0	 0	 6.919996e-11
0	 0	 6.919982e-11
7.298049e-10	 -1.389807e-09	 -4.179487e-17
-2.124320e-10	 5.446583e-10	 -2.333790e-17
-4.829015e-16	 -2.411971e-16	 -1.170542e-11
-6.861810e-11	 3.436612e-10	 1.208165e-11
-6.726396e-10	 1.408227e-09	 6.882068e-17
4.694641e-10	 -9.857643e-10	 -6.897478e-11
1.000759e-10	 -4.994344e-10	 2.331438e-17
-6.861834e-11	 3.436611e-10	 -1.208170e-11
6.861751e-11	 -3.436616e-10	 -1.208167e-11
0	 0	 1.046018e-10
-4.694644e-10	 9.857655e-10	 6.897485e-11
-1.998324e-16	 9.078820e-16	 -1.046017e-10
0	 0	 1.046016e-10
-4.505561e-16	 -2.534634e-16	 -2.147104e-11
0	 0	 2.147107e-11
6.861775e-11	 -3.436614e-10	 1.208172e-11
0	 0	 2.147100e-11
-4.694645e-10	 9.857660e-10	 -6.897472e-11
4.694642e-10	 -9.857648e-10	 6.897469e-11
6.726393e-10	 -1.408226e-09	 -5.063498e-17
-1.000766e-10	 4.994340e-10	 -2.719001e-17
0	 0	 1.399973e-10
-6.154973e-10	 1.426349e-09	 7.765611e-17
6.154970e-10	 -1.426347e-09	 -5.946031e-17
0	 0	 1.399971e-10
0	 0	 3.118516e-11
1.257126e-11	 4.542944e-10	 -3.104157e-17
0	 0	 3.118508e-11
-1.257185e-11	 -4.542948e-10	 2.716212e-17
-2.143962e-16	 9.007796e-16	 -1.399972e-10
-4.178721e-16	 -2.657381e-16	 -3.118512e-11
-4.027523e-10	 1.009087e-09	 1.302744e-10
-7.219031e-11	 -2.876717e-10	 2.864189e-11
1.272935e-10	 4.071406e-10	 -3.491300e-17
7.219002e-11	 2.876715e-10	 2.864180e-11
0	 0	 1.760763e-10
-5.556707e-10	 1.441025e-09	 8.652296e-17
-2.288378e-16	 8.930598e-16	 -1.760762e-10
4.027520e-10	 -1.009086e-09	 -1.302743e-10
5.556704e-10	 -1.441023e-09	 -6.831719e-17
4.027521e-10	 -1.009086e-09	 1.302742e-10
0	 0	 1.760761e-10
0	 0	 4.107648e-11
-1.272940e-10	 -4.071410e-10	 3.102968e-17
-3.849119e-16	 -2.777373e-16	 -4.107644e-11
7.218981e-11	 2.876713e-10	 -2.864187e-11
0	 0	 4.107639e-11
-4.027524e-10	 1.009087e-09	 -1.302742e-10
-7.219052e-11	 -2.876718e-10	 -2.864183e-11
0	 0	 3.863640e-11
8.391482e-18	 6.307247e-16	 -3.863634e-11
6.085139e-10	 -1.568314e-09	 -1.308639e-17
0	 0	 3.863633e-11
0	 0	 -3.097760e-11