# vtk DataFile Version 3.0
Unstructured Grid Example
ASCII
DATASET UNSTRUCTURED_GRID
POINTS 832 float
-1	 0	 0
-1	 0	 3.750000e-01
-1	 0	 7.500000e-01
-1	 0	 1.125000e+00
-1	 0	 1.500000e+00
-1	 0	 1.875000e+00
-1	 0	 2.250000e+00
-1	 0	 2.625000e+00
-1	 0	 3
-9.875000e-01	 0	 0
-9.875000e-01	 0	 1.500000e+00
-9.875000e-01	 0	 3
-9.875000e-01	 0	 2.250000e+00
-9.875000e-01	 0	 7.500000e-01
-9.833054e-01	 -1.819631e-01	 7.500000e-01
-9.833054e-01	 -1.819631e-01	 0
-9.833054e-01	 -1.819631e-01	 1.500000e+00
-9.833054e-01	 -1.819631e-01	 3.000000e+00
-9.833054e-01	 1.819631e-01	 2.250000e+00
-9.833054e-01	 1.819631e-01	 0
-9.833054e-01	 1.819631e-01	 1.500000e+00
-9.833054e-01	 1.819631e-01	 3.000000e+00
-9.833054e-01	 1.819631e-01	 7.500000e-01
-9.833054e-01	 -1.819631e-01	 2.250000e+00
-9.750000e-01	 0	 7.500000e-01
-9.750000e-01	 0	 1.125000e+00
-9.750000e-01	 0	 0
-9.750000e-01	 0	 3.750000e-01
-9.750000e-01	 0	 1.875000e+00
-9.750000e-01	 0	 2.625000e+00
-9.750000e-01	 0	 3
-9.750000e-01	 0	 1.500000e+00
-9.750000e-01	 0	 2.250000e+00
-9.625000e-01	 0	 1.500000e+00
-9.625000e-01	 0	 2.250000e+00
-9.625000e-01	 0	 0
-9.625000e-01	 0	 7.500000e-01
-9.625000e-01	 0	 3
-9.587227e-01	 -1.774140e-01	 0
-9.587227e-01	 -1.774140e-01	 3.000000e+00
-9.587227e-01	 -1.774140e-01	 1.500000e+00
-9.587227e-01	 1.774140e-01	 0
-9.587227e-01	 1.774140e-01	 3.000000e+00
-9.587227e-01	 1.774140e-01	 1.500000e+00
-9.587227e-01	 1.774140e-01	 7.500000e-01
-9.587227e-01	 -1.774140e-01	 7.500000e-01
-9.587227e-01	 -1.774140e-01	 2.250000e+00
-9.587227e-01	 1.774140e-01	 2.250000e+00
-9.500000e-01	 0	 0
-9.500000e-01	 0	 3.750000e-01
-9.500000e-01	 0	 1.125000e+00
-9.500000e-01	 0	 1.500000e+00
-9.500000e-01	 0	 1.875000e+00
-9.500000e-01	 0	 2.250000e+00
-9.500000e-01	 0	 2.625000e+00
-9.500000e-01	 0	 3
-9.500000e-01	 0	 7.500000e-01
-9.341401e-01	 -1.728649e-01	 1.500000e+00
-9.341401e-01	 -1.728649e-01	 0
-9.341401e-01	 -1.728649e-01	 3.000000e+00
-9.341401e-01	 1.728649e-01	 2.250000e+00
-9.341401e-01	 1.728649e-01	 0
-9.341401e-01	 1.728649e-01	 1.500000e+00
-9.341401e-01	 1.728649e-01	 3.000000e+00
-9.341401e-01	 -1.728649e-01	 7.500000e-01
-9.341401e-01	 -1.728649e-01	 2.250000e+00
-9.341401e-01	 1.728649e-01	 7.500000e-01
-9.297883e-01	 -3.680947e-01	 1.125000e+00
-9.297883e-01	 -3.680947e-01	 0
-9.297883e-01	 -3.680947e-01	 7.500000e-01
-9.297883e-01	 -3.680947e-01	 1.500000e+00
-9.297883e-01	 -3.680947e-01	 1.875000e+00
-9.297883e-01	 -3.680947e-01	 2.250000e+00
-9.297883e-01	 -3.680947e-01	 2.625000e+00
-9.297883e-01	 -3.680947e-01	 3.000000e+00
-9.297883e-01	 -3.680947e-01	 3.750000e-01
-9.297883e-01	 3.680947e-01	 3.750000e-01
-9.297883e-01	 3.680947e-01	 2.250000e+00
-9.297883e-01	 3.680947e-01	 2.625000e+00
-9.297883e-01	 3.680947e-01	 0
-9.297883e-01	 3.680947e-01	 7.500000e-01
-9.297883e-01	 3.680947e-01	 1.500000e+00
-9.297883e-01	 3.680947e-01	 1.875000e+00
-9.297883e-01	 3.680947e-01	 3.000000e+00
-9.297883e-01	 3.680947e-01	 1.125000e+00
-9.181659e-01	 3.634935e-01	 7.500000e-01
-9.181659e-01	 -3.634935e-01	 0
-9.181659e-01	 -3.634935e-01	 7.500000e-01
-9.181659e-01	 -3.634935e-01	 2.250000e+00
-9.181659e-01	 -3.634935e-01	 3
-9.181659e-01	 3.634935e-01	 0
-9.181659e-01	 3.634935e-01	 2.250000e+00
-9.181659e-01	 3.634935e-01	 3
-9.181659e-01	 -3.634935e-01	 1.500000e+00
-9.181659e-01	 3.634935e-01	 1.500000e+00
-9.065436e-01	 -3.588923e-01	 1.125000e+00
-9.065436e-01	 -3.588923e-01	 2.625000e+00
-9.065436e-01	 -3.588923e-01	 0
-9.065436e-01	 -3.588923e-01	 3.750000e-01
-9.065436e-01	 -3.588923e-01	 1.500000e+00
-9.065436e-01	 -3.588923e-01	 3
-9.065436e-01	 3.588923e-01	 2.625000e+00
-9.065436e-01	 3.588923e-01	 1.125000e+00
-9.065436e-01	 3.588923e-01	 0
-9.065436e-01	 3.588923e-01	 3.750000e-01
-9.065436e-01	 3.588923e-01	 3
-9.065436e-01	 -3.588923e-01	 7.500000e-01
-9.065436e-01	 -3.588923e-01	 1.875000e+00
-9.065436e-01	 3.588923e-01	 1.875000e+00
-9.065436e-01	 3.588923e-01	 1.500000e+00
-9.065436e-01	 -3.588923e-01	 2.250000e+00
-9.065436e-01	 3.588923e-01	 7.500000e-01
-9.065436e-01	 3.588923e-01	 2.250000e+00
-8.949212e-01	 3.542912e-01	 1.500000e+00
-8.949212e-01	 -3.542912e-01	 1.500000e+00
-8.949212e-01	 -3.542912e-01	 0
-8.949212e-01	 -3.542912e-01	 3.000000e+00
-8.949212e-01	 3.542912e-01	 0
-8.949212e-01	 3.542912e-01	 3.000000e+00
-8.949212e-01	 -3.542912e-01	 2.250000e+00
-8.949212e-01	 -3.542912e-01	 7.500000e-01
-8.949212e-01	 3.542912e-01	 2.250000e+00
-8.949212e-01	 3.542912e-01	 7.500000e-01
-8.832989e-01	 -3.496900e-01	 1.125000e+00
-8.832989e-01	 -3.496900e-01	 1.875000e+00
-8.832989e-01	 -3.496900e-01	 2.625000e+00
-8.832989e-01	 -3.496900e-01	 2.250000e+00
-8.832989e-01	 3.496900e-01	 1.125000e+00
-8.832989e-01	 -3.496900e-01	 0
-8.832989e-01	 -3.496900e-01	 3.000000e+00
-8.832989e-01	 -3.496900e-01	 3.750000e-01
-8.832989e-01	 -3.496900e-01	 7.500000e-01
-8.832989e-01	 3.496900e-01	 3.750000e-01
-8.832989e-01	 3.496900e-01	 7.500000e-01
-8.832989e-01	 3.496900e-01	 2.250000e+00
-8.832989e-01	 3.496900e-01	 2.625000e+00
-8.832989e-01	 3.496900e-01	 0
-8.832989e-01	 3.496900e-01	 1.875000e+00
-8.832989e-01	 3.496900e-01	 3.000000e+00
-8.832989e-01	 -3.496900e-01	 1.500000e+00
-8.832989e-01	 3.496900e-01	 1.500000e+00
-8.369955e-01	 -5.472098e-01	 0
-8.369955e-01	 -5.472098e-01	 7.500000e-01
-8.369955e-01	 -5.472098e-01	 1.500000e+00
-8.369955e-01	 -5.472098e-01	 2.250000e+00
-8.369955e-01	 -5.472098e-01	 3
-8.369955e-01	 5.472098e-01	 0
-8.369955e-01	 5.472098e-01	 7.500000e-01
-8.369955e-01	 5.472098e-01	 1.500000e+00
-8.369955e-01	 5.472098e-01	 2.250000e+00
-8.369955e-01	 5.472098e-01	 3
-8.160706e-01	 -5.335295e-01	 7.500000e-01
-8.160706e-01	 5.335295e-01	 7.500000e-01
-8.160706e-01	 -5.335295e-01	 1.500000e+00
-8.160706e-01	 -5.335295e-01	 2.250000e+00
-8.160706e-01	 5.335295e-01	 1.500000e+00
-8.160706e-01	 5.335295e-01	 2.250000e+00
-8.160706e-01	 -5.335295e-01	 0
-8.160706e-01	 -5.335295e-01	 3.000000e+00
-8.160706e-01	 5.335295e-01	 0
-8.160706e-01	 5.335295e-01	 3.000000e+00
-7.951457e-01	 -5.198493e-01	 7.500000e-01
-7.951457e-01	 5.198493e-01	 7.500000e-01
-7.951457e-01	 -5.198493e-01	 0
-7.951457e-01	 -5.198493e-01	 1.500000e+00
-7.951457e-01	 -5.198493e-01	 2.250000e+00
-7.951457e-01	 -5.198493e-01	 3
-7.951457e-01	 5.198493e-01	 0
-7.951457e-01	 5.198493e-01	 1.500000e+00
-7.951457e-01	 5.198493e-01	 2.250000e+00
-7.951457e-01	 5.198493e-01	 3
-7.071068e-01	 -7.071068e-01	 0
-7.071068e-01	 -7.071068e-01	 3.750000e-01
-7.071068e-01	 -7.071068e-01	 7.500000e-01
-7.071068e-01	 -7.071068e-01	 1.125000e+00
-7.071068e-01	 -7.071068e-01	 1.500000e+00
-7.071068e-01	 -7.071068e-01	 1.875000e+00
-7.071068e-01	 -7.071068e-01	 2.250000e+00
-7.071068e-01	 -7.071068e-01	 2.625000e+00
-7.071068e-01	 -7.071068e-01	 3.000000e+00
-7.071068e-01	 7.071068e-01	 0
-7.071068e-01	 7.071068e-01	 3.750000e-01
-7.071068e-01	 7.071068e-01	 7.500000e-01
-7.071068e-01	 7.071068e-01	 1.125000e+00
-7.071068e-01	 7.071068e-01	 1.500000e+00
-7.071068e-01	 7.071068e-01	 1.875000e+00
-7.071068e-01	 7.071068e-01	 2.250000e+00
-7.071068e-01	 7.071068e-01	 2.625000e+00
-7.071068e-01	 7.071068e-01	 3.000000e+00
-6.982679e-01	 -6.982679e-01	 7.500000e-01
-6.982679e-01	 6.982679e-01	 7.500000e-01
-6.982679e-01	 -6.982679e-01	 0
-6.982679e-01	 -6.982679e-01	 2.250000e+00
-6.982679e-01	 -6.982679e-01	 3.000000e+00
-6.982679e-01	 6.982679e-01	 0
-6.982679e-01	 6.982679e-01	 2.250000e+00
-6.982679e-01	 6.982679e-01	 3.000000e+00
-6.982679e-01	 -6.982679e-01	 1.500000e+00
-6.982679e-01	 6.982679e-01	 1.500000e+00
-6.894291e-01	 -6.894291e-01	 3.750000e-01
-6.894291e-01	 -6.894291e-01	 2.625000e+00
-6.894291e-01	 -6.894291e-01	 0
-6.894291e-01	 -6.894291e-01	 1.500000e+00
-6.894291e-01	 -6.894291e-01	 2.250000e+00
-6.894291e-01	 -6.894291e-01	 3.000000e+00
-6.894291e-01	 6.894291e-01	 3.750000e-01
-6.894291e-01	 6.894291e-01	 2.625000e+00
-6.894291e-01	 -6.894291e-01	 1.875000e+00
-6.894291e-01	 6.894291e-01	 1.875000e+00
-6.894291e-01	 -6.894291e-01	 7.500000e-01
-6.894291e-01	 -6.894291e-01	 1.125000e+00
-6.894291e-01	 6.894291e-01	 0
-6.894291e-01	 6.894291e-01	 1.500000e+00
-6.894291e-01	 6.894291e-01	 2.250000e+00
-6.894291e-01	 6.894291e-01	 3.000000e+00
-6.894291e-01	 6.894291e-01	 7.500000e-01
-6.894291e-01	 6.894291e-01	 1.125000e+00
-6.805903e-01	 6.805903e-01	 7.500000e-01
-6.805903e-01	 -6.805903e-01	 7.500000e-01
-6.805903e-01	 -6.805903e-01	 0
-6.805903e-01	 -6.805903e-01	 1.500000e+00
-6.805903e-01	 -6.805903e-01	 3.000000e+00
-6.805903e-01	 6.805903e-01	 0
-6.805903e-01	 6.805903e-01	 1.500000e+00
-6.805903e-01	 6.805903e-01	 3.000000e+00
-6.805903e-01	 6.805903e-01	 2.250000e+00
-6.805903e-01	 -6.805903e-01	 2.250000e+00
-6.717514e-01	 -6.717514e-01	 2.625000e+00
-6.717514e-01	 6.717514e-01	 2.625000e+00
-6.717514e-01	 -6.717514e-01	 0
-6.717514e-01	 -6.717514e-01	 3.750000e-01
-6.717514e-01	 -6.717514e-01	 7.500000e-01
-6.717514e-01	 -6.717514e-01	 1.125000e+00
-6.717514e-01	 -6.717514e-01	 1.875000e+00
-6.717514e-01	 -6.717514e-01	 3.000000e+00
-6.717514e-01	 -6.717514e-01	 2.250000e+00
-6.717514e-01	 6.717514e-01	 1.500000e+00
-6.717514e-01	 6.717514e-01	 0
-6.717514e-01	 6.717514e-01	 3.750000e-01
-6.717514e-01	 6.717514e-01	 7.500000e-01
-6.717514e-01	 6.717514e-01	 1.125000e+00
-6.717514e-01	 6.717514e-01	 1.875000e+00
-6.717514e-01	 6.717514e-01	 3.000000e+00
-6.717514e-01	 -6.717514e-01	 1.500000e+00
-6.717514e-01	 6.717514e-01	 2.250000e+00
-5.472098e-01	 -8.369955e-01	 0
-5.472098e-01	 -8.369955e-01	 7.500000e-01
-5.472098e-01	 -8.369955e-01	 1.500000e+00
-5.472098e-01	 -8.369955e-01	 2.250000e+00
-5.472098e-01	 -8.369955e-01	 3
-5.472098e-01	 8.369955e-01	 0
-5.472098e-01	 8.369955e-01	 7.500000e-01
-5.472098e-01	 8.369955e-01	 1.500000e+00
-5.472098e-01	 8.369955e-01	 2.250000e+00
-5.472098e-01	 8.369955e-01	 3
-5.335295e-01	 -8.160706e-01	 1.500000e+00
-5.335295e-01	 -8.160706e-01	 2.250000e+00
-5.335295e-01	 8.160706e-01	 0
-5.335295e-01	 8.160706e-01	 3.000000e+00
[...]
POINT_DATA 832
VECTORS displacement float
0	 0	 -9.816923e-03
-5.242287e-02	 1.039506e-11	 -6.642678e-03
-7.093240e-02	 1.851170e-11	 -1.379030e-12
-5.242287e-02	 2.021782e-11	 6.642678e-03
5.914516e-11	 1.429279e-11	 9.816923e-03
5.242287e-02	 3.785847e-12	 6.642678e-03
7.093240e-02	 -3.568276e-12	 -2.218242e-12
5.242287e-02	 -4.439873e-12	 -6.642678e-03
0	 0	 -9.816923e-03
0	 0	 -7.805153e-03
5.932539e-11	 1.592436e-11	 7.805153e-03
0	 0	 -7.805153e-03
7.128186e-02	 -5.582443e-12	 -2.198036e-12
-7.128186e-02	 2.154525e-11	 -1.527153e-12
-5.659694e-02	 -3.268380e-03	 -2.556489e-13
0	 0	 -7.870507e-03
5.376138e-11	 1.942508e-11	 7.870507e-03
0	 0	 -7.870507e-03
5.659694e-02	 -3.268380e-03	 4.468280e-13
0	 0	 -7.870507e-03
1.525084e-11	 1.430476e-11	 7.870507e-03
0	 0	 -7.870507e-03
-5.659694e-02	 3.268380e-03	 -4.357971e-12
5.659694e-02	 3.268380e-03	 -3.078271e-12
-7.149293e-02	 2.455056e-11	 -1.669649e-12
-5.259921e-02	 2.615487e-11	 4.010102e-03
0	 0	 -5.815059e-03
-5.259921e-02	 1.402343e-11	 -4.010102e-03
5.259921e-02	 2.743747e-12	 4.010102e-03
5.259921e-02	 -7.862386e-12	 -4.010102e-03
0	 0	 -5.815059e-03
5.937402e-11	 1.753870e-11	 5.815059e-03
7.149293e-02	 -7.579481e-12	 -2.182573e-12
5.938839e-11	 1.913833e-11	 3.821387e-03
7.168651e-02	 -9.557829e-12	 -2.164650e-12
0	 0	 -3.821387e-03
-7.168651e-02	 2.752839e-11	 -1.811750e-12
0	 0	 -3.821387e-03
0	 0	 -4.811248e-03
0	 0	 -4.811248e-03
5.460349e-11	 1.517788e-11	 4.811248e-03
0	 0	 -4.811248e-03
0	 0	 -4.811248e-03
1.670781e-11	 2.242258e-11	 4.811248e-03
-5.756695e-02	 -1.342929e-03	 -3.627351e-12
-5.756695e-02	 1.342929e-03	 -8.328030e-13
5.756695e-02	 -1.342929e-03	 -2.694256e-12
5.756695e-02	 1.342929e-03	 -5.019665e-13
0	 0	 -1.803311e-03
-5.251108e-02	 1.762841e-11	 -1.367514e-03
-5.251108e-02	 3.205757e-11	 1.367514e-03
5.923915e-11	 2.075321e-11	 1.803311e-03
5.251108e-02	 1.702206e-12	 1.367514e-03
7.171721e-02	 -1.156955e-11	 -2.146205e-12
5.251108e-02	 -1.127683e-11	 -1.367514e-03
0	 0	 -1.803311e-03
-7.171721e-02	 3.053979e-11	 -1.957449e-12
5.501533e-11	 1.081090e-11	 1.756488e-03
0	 0	 -1.756488e-03
0	 0	 -1.756488e-03
5.822469e-02	 6.073846e-03	 -1.461110e-12
0	 0	 -1.756488e-03
1.796027e-11	 3.065855e-11	 1.756488e-03
0	 0	 -1.756488e-03
-5.822469e-02	 6.073846e-03	 -1.402338e-12
5.822469e-02	 -6.073846e-03	 -2.316585e-12
-5.822469e-02	 -6.073846e-03	 -2.886837e-12
-4.866662e-03	 6.469020e-03	 2.729227e-04
0	 0	 -5.269188e-04
-6.656531e-03	 9.192106e-03	 -1.521362e-12
-2.877538e-12	 7.507940e-12	 5.269188e-04
4.866662e-03	 -6.469020e-03	 2.729227e-04
6.656531e-03	 -9.192106e-03	 -7.211001e-13
4.866662e-03	 -6.469020e-03	 -2.729227e-04
0	 0	 -5.269188e-04
-4.866662e-03	 6.469020e-03	 -2.729227e-04
-4.866662e-03	 -6.469020e-03	 -2.729227e-04
6.656531e-03	 9.192106e-03	 4.743038e-12
4.866662e-03	 6.469020e-03	 -2.729227e-04
0	 0	 -5.269188e-04
-6.656531e-03	 -9.192106e-03	 -8.693343e-12
-5.748034e-11	 3.431009e-11	 5.269188e-04
4.866662e-03	 6.469020e-03	 2.729227e-04
0	 0	 -5.269188e-04
-4.866662e-03	 -6.469020e-03	 2.729227e-04
-8.117462e-03	 -1.291026e-02	 -7.611200e-12
0	 0	 -4.251081e-04
-8.117462e-03	 1.291026e-02	 -1.485010e-12
8.117462e-03	 -1.291026e-02	 -8.292272e-13
0	 0	 -4.251081e-04
0	 0	 -4.251081e-04
8.117462e-03	 1.291026e-02	 3.559631e-12
0	 0	 -4.251081e-04
-1.039223e-12	 2.841310e-12	 4.251081e-04
-5.569635e-11	 3.945983e-11	 4.251081e-04
-6.869228e-03	 1.154106e-02	 1.843598e-04
6.869228e-03	 -1.154106e-02	 -1.843598e-04
0	 0	 -3.224998e-04
-6.869228e-03	 1.154106e-02	 -1.843599e-04
7.734371e-13	 -1.757471e-12	 3.224998e-04
0	 0	 -3.224998e-04
6.869228e-03	 1.154106e-02	 -1.843599e-04
-6.869228e-03	 -1.154106e-02	 1.843599e-04
0	 0	 -3.224999e-04
-6.869228e-03	 -1.154106e-02	 -1.843599e-04
0	 0	 -3.224998e-04
-9.566636e-03	 1.658959e-02	 -1.446255e-12
6.869228e-03	 -1.154106e-02	 1.843598e-04
6.869228e-03	 1.154106e-02	 1.843599e-04
-5.385557e-11	 4.451885e-11	 3.224998e-04
9.566636e-03	 -1.658959e-02	 -9.365737e-13
-9.566636e-03	 -1.658959e-02	 -6.536065e-12
9.566636e-03	 1.658959e-02	 2.383984e-12
-5.201291e-11	 4.953850e-11	 2.181573e-04
2.577776e-12	 -6.325842e-12	 2.181573e-04
0	 0	 -2.181573e-04
0	 0	 -2.181573e-04
0	 0	 -2.181574e-04
0	 0	 -2.181573e-04
1.100307e-02	 -2.023010e-02	 -1.044757e-12
-1.100307e-02	 2.023010e-02	 -1.407927e-12
1.100307e-02	 2.023010e-02	 1.207068e-12
-1.100307e-02	 -2.023010e-02	 -5.460158e-12
-8.863893e-03	 1.658222e-02	 9.299095e-05
8.863893e-03	 -1.658222e-02	 9.299095e-05
8.863893e-03	 -1.658222e-02	 -9.299095e-05
1.246195e-02	 -2.391786e-02	 -1.152624e-12
-8.863894e-03	 -1.658222e-02	 9.299095e-05
0	 0	 -1.137401e-04
0	 0	 -1.137400e-04
-8.863893e-03	 1.658222e-02	 -9.299095e-05
-1.246195e-02	 2.391786e-02	 -1.370503e-12
-8.863893e-03	 -1.658222e-02	 -9.299095e-05
-1.246195e-02	 -2.391786e-02	 -4.374264e-12
1.246195e-02	 2.391786e-02	 1.852116e-14
8.863893e-03	 1.658222e-02	 -9.299095e-05
0	 0	 -1.137401e-04
8.863893e-03	 1.658222e-02	 9.299095e-05
0	 0	 -1.137400e-04
4.404585e-12	 -1.093856e-11	 1.137400e-04
-5.005802e-11	 5.456819e-11	 1.137401e-04
0	 0	 7.208482e-03
3.888640e-02	 3.472751e-02	 -2.617503e-12
-5.339690e-11	 -2.379788e-11	 -7.208482e-03
-3.888640e-02	 -3.472751e-02	 1.791134e-12
0	 0	 7.208482e-03
0	 0	 7.208482e-03
3.888640e-02	 -3.472751e-02	 -1.071393e-11
-1.015356e-10	 6.595603e-11	 -7.208482e-03
-3.888640e-02	 3.472751e-02	 7.709142e-12
0	 0	 7.208482e-03
3.647721e-02	 3.855089e-02	 -1.903056e-12
3.647721e-02	 -3.855089e-02	 -7.920859e-12
-5.105547e-11	 -2.747716e-11	 -4.415755e-03
-3.647721e-02	 -3.855089e-02	 9.110766e-13
-1.006429e-10	 6.766218e-11	 -4.415755e-03
-3.647721e-02	 3.855089e-02	 4.721123e-12
0	 0	 4.415755e-03
0	 0	 4.415755e-03
0	 0	 4.415755e-03
0	 0	 4.415755e-03
3.378408e-02	 4.225249e-02	 -1.193901e-12
3.378408e-02	 -4.225249e-02	 -5.126717e-12
0	 0	 1.624071e-03
-4.837970e-11	 -3.097990e-11	 -1.624071e-03
-3.378408e-02	 -4.225249e-02	 3.595997e-14
0	 0	 1.624071e-03
0	 0	 1.624071e-03
-9.923639e-11	 6.904656e-11	 -1.624071e-03
-3.378408e-02	 4.225249e-02	 1.731217e-12
0	 0	 1.624071e-03
0	 0	 9.606360e-03
3.561148e-02	 3.561148e-02	 6.387080e-03
4.774703e-02	 4.774703e-02	 -1.141456e-12
3.561148e-02	 3.561148e-02	 -6.387080e-03
-5.743733e-11	 -3.389511e-11	 -9.606360e-03
-3.561148e-02	 -3.561148e-02	 -6.387080e-03
-4.774703e-02	 -4.774703e-02	 1.244028e-12
-3.561148e-02	 -3.561148e-02	 6.387080e-03
0	 0	 9.606360e-03
0	 0	 9.606360e-03
3.561148e-02	 -3.561148e-02	 6.387080e-03
4.774703e-02	 -4.774703e-02	 -7.232393e-12
3.561148e-02	 -3.561148e-02	 -6.387080e-03
-7.772581e-11	 5.694147e-11	 -9.606360e-03
-3.561148e-02	 3.561148e-02	 -6.387080e-03
-4.774703e-02	 4.774703e-02	 5.716705e-12
-3.561148e-02	 3.561148e-02	 6.387080e-03
0	 0	 9.606360e-03
4.797996e-02	 4.797996e-02	 -8.710511e-13
4.797996e-02	 -4.797996e-02	 -6.287525e-12
0	 0	 7.649816e-03
-4.797996e-02	 -4.797996e-02	 8.804892e-13
0	 0	 7.649816e-03
0	 0	 7.649816e-03
-4.797996e-02	 4.797996e-02	 4.669594e-12
0	 0	 7.649816e-03
-5.834841e-11	 -3.322747e-11	 -7.649816e-03
-8.057305e-11	 5.448806e-11	 -7.649816e-03
3.572599e-02	 3.572599e-02	 3.889496e-03
-3.572599e-02	 -3.572599e-02	 3.889496e-03
0	 0	 5.711177e-03
-5.918010e-11	 -3.250390e-11	 -5.711177e-03
-4.812986e-02	 -4.812986e-02	 5.198399e-13
0	 0	 5.711177e-03
3.572599e-02	 -3.572599e-02	 3.889496e-03
-3.572599e-02	 3.572599e-02	 3.889496e-03
-3.572599e-02	 -3.572599e-02	 -3.889496e-03
-3.572599e-02	 3.572599e-02	 -3.889496e-03
4.812986e-02	 4.812986e-02	 -6.027393e-13
3.572599e-02	 3.572599e-02	 -3.889496e-03
0	 0	 5.711177e-03
-8.330969e-11	 5.196838e-11	 -5.711177e-03
-4.812986e-02	 4.812986e-02	 3.629226e-12
0	 0	 5.711177e-03
4.812986e-02	 -4.812986e-02	 -5.349567e-12
3.572599e-02	 -3.572599e-02	 -3.889496e-03
4.827703e-02	 -4.827703e-02	 -4.410095e-12
4.827703e-02	 4.827703e-02	 -3.320813e-13
0	 0	 3.772027e-03
-5.999999e-11	 -3.176545e-11	 -3.772027e-03
0	 0	 3.772027e-03
0	 0	 3.772027e-03
-8.600964e-11	 4.945825e-11	 -3.772027e-03
0	 0	 3.772027e-03
-4.827703e-02	 4.827703e-02	 2.586378e-12
-4.827703e-02	 -4.827703e-02	 1.593642e-13
-3.568305e-02	 -3.568305e-02	 1.383571e-03
-3.568305e-02	 3.568305e-02	 1.383571e-03
0	 0	 1.810772e-03
3.568304e-02	 3.568305e-02	 1.383571e-03
4.832472e-02	 4.832472e-02	 -6.131745e-14
3.568304e-02	 3.568304e-02	 -1.383571e-03
-3.568305e-02	 -3.568305e-02	 -1.383571e-03
0	 0	 1.810772e-03
-4.832472e-02	 -4.832472e-02	 -2.045927e-13
-8.862435e-11	 4.681602e-11	 -1.810772e-03
0	 0	 1.810772e-03
3.568304e-02	 -3.568305e-02	 1.383571e-03
4.832472e-02	 -4.832472e-02	 -3.461380e-12
3.568304e-02	 -3.568304e-02	 -1.383571e-03
-3.568305e-02	 3.568305e-02	 -1.383571e-03
0	 0	 1.810772e-03
-6.074083e-11	 -3.093365e-11	 -1.810772e-03
-4.832472e-02	 4.832472e-02	 1.535359e-12
0	 0	 7.208482e-03
3.472751e-02	 3.888640e-02	 2.131122e-12
-3.096222e-11	 -7.137962e-12	 -7.208482e-03
-3.472751e-02	 -3.888640e-02	 -1.184650e-12
0	 0	 7.208482e-03
0	 0	 7.208482e-03
3.472751e-02	 -3.888640e-02	 -8.583186e-13
-2.649623e-11	 5.432814e-13	 -7.208482e-03
-3.472751e-02	 3.888640e-02	 4.103325e-13
0	 0	 7.208482e-03
-3.641679e-11	 -3.531742e-12	 -4.415755e-03
-3.855089e-02	 -3.647721e-02	 -1.138257e-12
0	 0	 4.415755e-03
0	 0	 4.415755e-03
-3.540352e-11	 -5.259400e-12	 -4.415755e-03
-3.855089e-02	 3.647721e-02	 3.386783e-13
3.855089e-02	 3.647721e-02	 2.021795e-12
0	 0	 4.415755e-03
0	 0	 4.415755e-03
3.855089e-02	 -3.647721e-02	 -1.008938e-12
4.225249e-02	 -3.378408e-02	 -1.159946e-12
4.225249e-02	 3.378408e-02	 1.907759e-12
0	 0	 1.624071e-03
-4.180268e-11	 2.750480e-13	 -1.624071e-03
-4.225249e-02	 -3.378408e-02	 -1.086347e-12
0	 0	 1.624071e-03
0	 0	 1.624071e-03
-4.433343e-11	 -1.120159e-11	 -1.624071e-03
-4.225249e-02	 3.378408e-02	 2.679744e-13
0	 0	 1.624071e-03
6.469020e-03	 -4.866662e-03	 2.729227e-04
6.469020e-03	 4.866662e-03	 2.729227e-04
0	 0	 -5.269188e-04
9.192106e-03	 -6.656531e-03	 7.107789e-12
5.548268e-13	 5.049986e-11	 5.269188e-04
-6.469020e-03	 4.866662e-03	 2.729227e-04
0	 0	 -5.269188e-04
0	 0	 -5.269188e-04
9.192106e-03	 6.656530e-03	 5.497659e-12
1.439715e-11	 -7.939109e-11	 5.269188e-04
-6.469020e-03	 -4.866662e-03	 2.729227e-04
-9.192106e-03	 -6.656531e-03	 -5.142042e-12
-6.469020e-03	 -4.866662e-03	 -2.729227e-04
0	 0	 -5.269188e-04
6.469020e-03	 -4.866662e-03	 -2.729227e-04
-9.192106e-03	 6.656531e-03	 -5.316734e-12
-6.469020e-03	 4.866662e-03	 -2.729227e-04
6.469020e-03	 4.866662e-03	 -2.729227e-04
-3.835299e-12	 5.234981e-11	 4.251081e-04
9.187949e-12	 -8.168747e-11	 4.251081e-04
1.291026e-02	 -8.117462e-03	 6.522322e-12
0	 0	 -4.251081e-04
-1.291026e-02	 8.117462e-03	 -4.701426e-12
0	 0	 -4.251081e-04
0	 0	 -4.251081e-04
1.291026e-02	 8.117462e-03	 4.329707e-12
-1.291026e-02	 -8.117462e-03	 -4.094458e-12
0	 0	 -4.251081e-04
-1.658959e-02	 9.566636e-03	 -4.089391e-12
-1.658959e-02	 -9.566636e-03	 -3.055067e-12
1.154106e-02	 6.869228e-03	 1.843598e-04
-1.154106e-02	 -6.869228e-03	 -1.843599e-04
0	 0	 -3.224998e-04
1.154106e-02	 -6.869228e-03	 -1.843598e-04
0	 0	 -3.224998e-04
-8.195104e-12	 5.415339e-11	 3.224998e-04
0	 0	 -3.224998e-04
1.154106e-02	 6.869228e-03	 -1.843598e-04
4.000676e-12	 -8.386612e-11	 3.224998e-04
0	 0	 -3.224998e-04
1.154106e-02	 -6.869228e-03	 1.843599e-04
-1.154106e-02	 6.869228e-03	 1.843598e-04
1.658959e-02	 -9.566636e-03	 5.939826e-12
1.658959e-02	 9.566636e-03	 3.170586e-12
-1.154106e-02	 -6.869228e-03	 1.843598e-04
-1.154106e-02	 6.869228e-03	 -1.843599e-04
-1.252477e-11	 5.594940e-11	 2.181573e-04
-2.023010e-02	 1.100307e-02	 -3.476003e-12
-2.023010e-02	 -1.100307e-02	 -2.013138e-12
0	 0	 -2.181573e-04
0	 0	 -2.181573e-04
-1.148481e-12	 -8.602082e-11	 2.181573e-04
0	 0	 -2.181573e-04
0	 0	 -2.181574e-04
2.023010e-02	 -1.100307e-02	 5.356406e-12
2.023010e-02	 1.100307e-02	 2.011322e-12
1.658222e-02	 -8.863893e-03	 9.299095e-05
0	 0	 -1.137400e-04
-1.658222e-02	 8.863893e-03	 9.299095e-05
0	 0	 -1.137401e-04
-1.690337e-11	 5.772040e-11	 1.137401e-04
0	 0	 -1.137400e-04
0	 0	 -1.137400e-04
1.658222e-02	 8.863893e-03	 9.299095e-05
-1.658222e-02	 -8.863893e-03	 9.299095e-05
-1.658222e-02	 -8.863893e-03	 -9.299095e-05
1.658222e-02	 -8.863893e-03	 -9.299094e-05
2.391786e-02	 -1.246195e-02	 4.770091e-12
-2.391786e-02	 1.246195e-02	 -2.856181e-12
-1.658222e-02	 8.863893e-03	 -9.299095e-05
-6.395034e-12	 -8.808279e-11	 1.137400e-04
1.658222e-02	 8.863893e-03	 -9.299094e-05
-2.391786e-02	 -1.246195e-02	 -9.608706e-13
2.391786e-02	 1.246195e-02	 8.401007e-13
-3.268380e-03	 -5.659694e-02	 1.111458e-11
-3.268380e-03	 5.659694e-02	 8.755868e-12
0	 0	 -7.870507e-03
1.114395e-11	 1.041703e-10	 7.870507e-03
0	 0	 -7.870507e-03
0	 0	 -7.870507e-03
2.199231e-11	 -1.336979e-10	 7.870507e-03
0	 0	 -7.870507e-03
3.268380e-03	 5.659694e-02	 -8.483801e-12
3.268380e-03	 -5.659694e-02	 -7.760192e-12
1.342929e-03	 -5.756695e-02	 9.215573e-12
0	 0	 -4.811248e-03
0	 0	 -4.811248e-03
1.342929e-03	 5.756695e-02	 5.520490e-12
-1.342929e-03	 -5.756695e-02	 -4.552763e-12
0	 0	 -4.811248e-03
0	 0	 -4.811248e-03
-1.342929e-03	 5.756695e-02	 -6.432366e-12
2.020201e-11	 -1.342261e-10	 4.811248e-03
7.152899e-12	 1.051215e-10	 4.811248e-03
1.826457e-11	 -1.340542e-10	 1.756488e-03
0	 0	 -1.756488e-03
3.056650e-12	 1.056749e-10	 1.756488e-03
0	 0	 -1.756488e-03
0	 0	 -1.756488e-03
0	 0	 -1.756488e-03
-6.073846e-03	 5.822469e-02	 -4.380085e-12
6.073846e-03	 -5.822469e-02	 7.319476e-12
6.073846e-03	 5.822469e-02	 2.285983e-12
-6.073846e-03	 -5.822469e-02	 -1.345446e-12
0	 0	 -9.816923e-03
1.417374e-12	 -5.242287e-02	 -6.642678e-03
3.119887e-12	 -7.093240e-02	 1.173128e-11
5.181546e-12	 -5.242287e-02	 6.642678e-03
6.454784e-12	 1.114764e-10	 9.816923e-03
5.602220e-12	 5.242287e-02	 6.642678e-03
2.778048e-12	 7.093240e-02	 -8.420121e-12
8.837825e-13	 5.242287e-02	 -6.642678e-03
0	 0	 -9.816923e-03
0	 0	 -7.805153e-03
7.628916e-12	 1.117128e-10	 7.805153e-03
0	 0	 -7.805153e-03
4.573869e-12	 7.128186e-02	 -7.426590e-12
2.130970e-12	 -7.128186e-02	 1.085764e-11
1.133724e-12	 -7.149293e-02	 9.986098e-12
4.943263e-12	 -5.259921e-02	 4.010102e-03
0	 0	 -5.815059e-03
-4.120691e-13	 -5.259921e-02	 -4.010102e-03
9.308002e-12	 5.259921e-02	 4.010102e-03
2.838830e-12	 5.259921e-02	 -4.010102e-03
0	 0	 -5.815059e-03
8.768238e-12	 1.118550e-10	 5.815059e-03
6.334946e-12	 7.149293e-02	 -6.437348e-12
9.917633e-12	 1.119549e-10	 3.821387e-03
8.086665e-12	 7.168651e-02	 -5.446038e-12
0	 0	 -3.821387e-03
1.631144e-13	 -7.168651e-02	 9.112062e-12
0	 0	 -3.821387e-03
0	 0	 -1.803311e-03
-2.227505e-12	 -5.251108e-02	 -1.367514e-03
4.714876e-12	 -5.251108e-02	 1.367514e-03
1.108280e-11	 1.119469e-10	 1.803311e-03
1.299706e-11	 5.251108e-02	 1.367514e-03
9.872769e-12	 7.171721e-02	 -4.450462e-12
4.779287e-12	 5.251108e-02	 -1.367514e-03
0	 0	 -1.803311e-03
-8.191809e-13	 -7.171721e-02	 8.234359e-12
2.848742e-11	 7.171721e-02	 1.864717e-12
0	 0	 -1.803311e-03
1.550062e-11	 5.251108e-02	 -1.367514e-03
3.329644e-11	 5.251108e-02	 1.367514e-03
2.827486e-11	 -1.096478e-10	 1.803311e-03
1.571592e-11	 -5.251108e-02	 1.367514e-03
4.061904e-12	 -7.171721e-02	 -3.315177e-13
-8.010936e-13	 -5.251108e-02	 -1.367514e-03
0	 0	 -1.803311e-03
0	 0	 -3.821387e-03
2.335777e-11	 7.168651e-02	 3.136745e-12
0	 0	 -3.821387e-03
2.403947e-11	 -1.097002e-10	 3.821387e-03
4.421660e-12	 -7.168651e-02	 -1.691361e-12
1.985049e-11	 -1.095851e-10	 5.815059e-03
4.765273e-12	 -7.149293e-02	 -3.039538e-12
0	 0	 -5.815059e-03
9.774992e-12	 5.259921e-02	 -4.010102e-03
1.235925e-11	 -5.259921e-02	 4.010102e-03
8.095769e-13	 -5.259921e-02	 -4.010102e-03
0	 0	 -5.815059e-03
1.828966e-11	 7.149293e-02	 4.397778e-12
2.222330e-11	 5.259921e-02	 4.010102e-03
1.318931e-11	 7.128186e-02	 5.656745e-12
5.129125e-12	 -7.128186e-02	 -4.385371e-12
0	 0	 -7.805153e-03
1.564042e-11	 -1.094269e-10	 7.805153e-03
0	 0	 -7.805153e-03
0	 0	 -9.816923e-03
4.007554e-12	 5.242287e-02	 -6.642678e-03
8.018343e-12	 7.093240e-02	 6.923799e-12
1.108160e-11	 5.242287e-02	 6.642678e-03
1.136792e-11	 -1.091303e-10	 9.816923e-03
8.980952e-12	 -5.242287e-02	 6.642678e-03
5.485905e-12	 -7.093240e-02	 -5.743035e-12
2.423799e-12	 -5.242287e-02	 -6.642678e-03
0	 0	 -9.816923e-03
-6.073846e-03	 -5.822469e-02	 7.864133e-12
6.073846e-03	 5.822469e-02	 -3.830262e-12
-6.073846e-03	 5.822469e-02	 6.834130e-13
6.073846e-03	 -5.822469e-02	 1.191533e-12
0	 0	 -1.756488e-03
0	 0	 -1.756488e-03
0	 0	 -1.756488e-03
3.526925e-11	 -4.409819e-11	 1.756488e-03
0	 0	 -1.756488e-03
1.613607e-11	 8.561823e-11	 1.756488e-03
2.540182e-11	 -4.225935e-11	 4.811248e-03
1.131384e-11	 8.471498e-11	 4.811248e-03
1.342929e-03	 -5.756695e-02	 1.615292e-13
0	 0	 -4.811248e-03
0	 0	 -4.811248e-03
-1.342929e-03	 -5.756695e-02	 9.016364e-12
1.342929e-03	 5.756695e-02	 -5.014212e-12
0	 0	 -4.811248e-03
0	 0	 -4.811248e-03
-1.342929e-03	 5.756695e-02	 1.497087e-12
-3.268380e-03	 5.659694e-02	 -6.198529e-12
-3.268380e-03	 -5.659694e-02	 -8.672398e-13
0	 0	 -7.870507e-03
6.557099e-12	 8.371899e-11	 7.870507e-03
0	 0	 -7.870507e-03
0	 0	 -7.870507e-03
1.562201e-11	 -4.043783e-11	 7.870507e-03
0	 0	 -7.870507e-03
3.268380e-03	 -5.659694e-02	 1.016871e-11
3.268380e-03	 5.659694e-02	 2.313224e-12
-2.391786e-02	 -1.246195e-02	 6.169183e-12
2.391786e-02	 1.246195e-02	 -2.043226e-12
-1.658222e-02	 -8.863893e-03	 -9.299094e-05
2.868773e-11	 4.722497e-11	 1.137401e-04
-1.658222e-02	 8.863893e-03	 -9.299095e-05
-2.391786e-02	 1.246195e-02	 -1.305587e-12
2.391786e-02	 -1.246195e-02	 3.590243e-12
1.658222e-02	 -8.863893e-03	 -9.299094e-05
-1.658222e-02	 -8.863893e-03	 9.299095e-05
1.658222e-02	 8.863893e-03	 9.299095e-05
1.658222e-02	 8.863893e-03	 -9.299095e-05
0	 0	 -1.137400e-04
0	 0	 -1.137401e-04
5.438745e-11	 2.448308e-11	 1.137401e-04
0	 0	 -1.137401e-04
1.658222e-02	 -8.863893e-03	 9.299095e-05
0	 0	 -1.137400e-04
-1.658222e-02	 8.863893e-03	 9.299095e-05
-2.023010e-02	 -1.100307e-02	 6.349178e-12
-2.023010e-02	 1.100307e-02	 -1.814006e-12
0	 0	 -2.181574e-04
0	 0	 -2.181573e-04
2.601896e-11	 4.610706e-11	 2.181573e-04
0	 0	 -2.181573e-04
0	 0	 -2.181573e-04
2.023010e-02	 1.100307e-02	 -2.132465e-12
2.023010e-02	 -1.100307e-02	 3.979068e-12
5.031776e-11	 2.614679e-11	 2.181573e-04
1.154106e-02	 -6.869228e-03	 -1.843598e-04
-1.658959e-02	 -9.566636e-03	 6.533510e-12
1.154106e-02	 6.869228e-03	 1.843598e-04
-1.658959e-02	 9.566636e-03	 -2.315483e-12
1.154106e-02	 -6.869228e-03	 1.843599e-04
-1.154106e-02	 6.869228e-03	 1.843599e-04
0	 0	 -3.224998e-04
-1.154106e-02	 -6.869228e-03	 -1.843598e-04
2.335668e-11	 4.503287e-11	 3.224998e-04
0	 0	 -3.224998e-04
4.623525e-11	 2.767804e-11	 3.224998e-04
0	 0	 -3.224998e-04
-1.154106e-02	 6.869228e-03	 -1.843599e-04
0	 0	 -3.224998e-04
-1.154106e-02	 -6.869228e-03	 1.843599e-04
1.154106e-02	 6.869228e-03	 -1.843599e-04
1.658959e-02	 9.566636e-03	 -2.224532e-12
1.658959e-02	 -9.566636e-03	 4.360309e-12
0	 0	 -4.251081e-04
-1.291026e-02	 -8.117462e-03	 6.716652e-12
1.291026e-02	 8.117462e-03	 -2.315028e-12
0	 0	 -4.251081e-04
0	 0	 -4.251081e-04
1.291026e-02	 -8.117462e-03	 4.742225e-12
0	 0	 -4.251081e-04
-1.291026e-02	 8.117462e-03	 -2.817136e-12
2.066240e-11	 4.393933e-11	 4.251081e-04
4.211272e-11	 2.921409e-11	 4.251081e-04
-6.469020e-03	 -4.866662e-03	 -2.729227e-04
-6.469020e-03	 4.866662e-03	 -2.729227e-04
9.192106e-03	 -6.656531e-03	 5.130312e-12
6.469020e-03	 -4.866662e-03	 -2.729227e-04
0	 0	 -5.269188e-04
-9.192106e-03	 -6.656530e-03	 6.896028e-12
1.795170e-11	 4.287079e-11	 5.269188e-04
6.469020e-03	 4.866662e-03	 2.729227e-04
9.192106e-03	 6.656531e-03	 -2.401567e-12
6.469020e-03	 4.866662e-03	 -2.729227e-04
0	 0	 -5.269188e-04
0	 0	 -5.269188e-04
-9.192106e-03	 6.656531e-03	 -3.326568e-12
3.792512e-11	 3.066671e-11	 5.269188e-04
6.469020e-03	 -4.866662e-03	 2.729227e-04
0	 0	 -5.269188e-04
-6.469020e-03	 -4.866662e-03	 2.729227e-04
-6.469020e-03	 4.866662e-03	 2.729227e-04
0	 0	 1.624071e-03
4.164114e-11	 1.497038e-11	 -1.624071e-03
4.225249e-02	 -3.378408e-02	 5.719993e-13
0	 0	 1.624071e-03
0	 0	 1.624071e-03
6.381458e-11	 6.316493e-11	 -1.624071e-03