# vtk DataFile Version 3.0
Unstructured Grid Example
ASCII
DATASET UNSTRUCTURED_GRID
POINTS 832 float
-1	 0	 0
-1	 0	 3.750000e-01
-1	 0	 7.500000e-01
-1	 0	 1.125000e+00
-1	 0	 1.500000e+00
-1	 0	 1.875000e+00
-1	 0	 2.250000e+00
-1	 0	 2.625000e+00
-1	 0	 3
-9.875000e-01	 0	 0
-9.875000e-01	 0	 1.500000e+00
-9.875000e-01	 0	 3
-9.875000e-01	 0	 2.250000e+00
-9.875000e-01	 0	 7.500000e-01
-9.833054e-01	 -1.819631e-01	 7.500000e-01
-9.833054e-01	 -1.819631e-01	 0
-9.833054e-01	 -1.819631e-01	 1.500000e+00
-9.833054e-01	 -1.819631e-01	 3.000000e+00
-9.833054e-01	 1.819631e-01	 2.250000e+00
-9.833054e-01	 1.819631e-01	 0
-9.833054e-01	 1.819631e-01	 1.500000e+00
-9.833054e-01	 1.819631e-01	 3.000000e+00
-9.833054e-01	 1.819631e-01	 7.500000e-01
-9.833054e-01	 -1.819631e-01	 2.250000e+00
-9.750000e-01	 0	 7.500000e-01
-9.750000e-01	 0	 1.125000e+00
-9.750000e-01	 0	 0
-9.750000e-01	 0	 3.750000e-01
-9.750000e-01	 0	 1.875000e+00
-9.750000e-01	 0	 2.625000e+00
-9.750000e-01	 0	 3
-9.750000e-01	 0	 1.500000e+00
-9.750000e-01	 0	 2.250000e+00
-9.625000e-01	 0	 1.500000e+00
-9.625000e-01	 0	 2.250000e+00
-9.625000e-01	 0	 0
-9.625000e-01	 0	 7.500000e-01
-9.625000e-01	 0	 3
-9.587227e-01	 -1.774140e-01	 0
-9.587227e-01	 -1.774140e-01	 3.000000e+00
-9.587227e-01	 -1.774140e-01	 1.500000e+00
-9.587227e-01	 1.774140e-01	 0
-9.587227e-01	 1.774140e-01	 3.000000e+00
-9.587227e-01	 1.774140e-01	 1.500000e+00
-9.587227e-01	 1.774140e-01	 7.500000e-01
-9.587227e-01	 -1.774140e-01	 7.500000e-01
-9.587227e-01	 -1.774140e-01	 2.250000e+00
-9.587227e-01	 1.774140e-01	 2.250000e+00
-9.500000e-01	 0	 0
-9.500000e-01	 0	 3.750000e-01
-9.500000e-01	 0	 1.125000e+00
-9.500000e-01	 0	 1.500000e+00
-9.500000e-01	 0	 1.875000e+00
-9.500000e-01	 0	 2.250000e+00
-9.500000e-01	 0	 2.625000e+00
-9.500000e-01	 0	 3
-9.500000e-01	 0	 7.500000e-01
-9.341401e-01	 -1.728649e-01	 1.500000e+00
-9.341401e-01	 -1.728649e-01	 0
-9.341401e-01	 -1.728649e-01	 3.000000e+00
-9.341401e-01	 1.728649e-01	 2.250000e+00
-9.341401e-01	 1.728649e-01	 0
-9.341401e-01	 1.728649e-01	 1.500000e+00
-9.341401e-01	 1.728649e-01	 3.000000e+00
-9.341401e-01	 -1.728649e-01	 7.500000e-01
-9.341401e-01	 -1.728649e-01	 2.250000e+00
-9.341401e-01	 1.728649e-01	 7.500000e-01
-9.297883e-01	 -3.680947e-01	 1.125000e+00
-9.297883e-01	 -3.680947e-01	 0
-9.297883e-01	 -3.680947e-01	 7.500000e-01
-9.297883e-01	 -3.680947e-01	 1.500000e+00
-9.297883e-01	 -3.680947e-01	 1.875000e+00
-9.297883e-01	 -3.680947e-01	 2.250000e+00
-9.297883e-01	 -3.680947e-01	 2.625000e+00
-9.297883e-01	 -3.680947e-01	 3.000000e+00
-9.297883e-01	 -3.680947e-01	 3.750000e-01
-9.297883e-01	 3.680947e-01	 3.750000e-01
-9.297883e-01	 3.680947e-01	 2.250000e+00
-9.297883e-01	 3.680947e-01	 2.625000e+00
-9.297883e-01	 3.680947e-01	 0
-9.297883e-01	 3.680947e-01	 7.500000e-01
-9.297883e-01	 3.680947e-01	 1.500000e+00
-9.297883e-01	 3.680947e-01	 1.875000e+00
-9.297883e-01	 3.680947e-01	 3.000000e+00
-9.297883e-01	 3.680947e-01	 1.125000e+00
-9.181659e-01	 3.634935e-01	 7.500000e-01
-9.181659e-01	 -3.634935e-01	 0
-9.181659e-01	 -3.634935e-01	 7.500000e-01
-9.181659e-01	 -3.634935e-01	 2.250000e+00
-9.181659e-01	 -3.634935e-01	 3
-9.181659e-01	 3.634935e-01	 0
-9.181659e-01	 3.634935e-01	 2.250000e+00
-9.181659e-01	 3.634935e-01	 3
-9.181659e-01	 -3.634935e-01	 1.500000e+00
-9.181659e-01	 3.634935e-01	 1.500000e+00
-9.065436e-01	 -3.588923e-01	 1.125000e+00
-9.065436e-01	 -3.588923e-01	 2.625000e+00
-9.065436e-01	 -3.588923e-01	 0
-9.065436e-01	 -3.588923e-01	 3.750000e-01
-9.065436e-01	 -3.588923e-01	 1.500000e+00
-9.065436e-01	 -3.588923e-01	 3
-9.065436e-01	 3.588923e-01	 2.625000e+00
-9.065436e-01	 3.588923e-01	 1.125000e+00
-9.065436e-01	 3.588923e-01	 0
-9.065436e-01	 3.588923e-01	 3.750000e-01
-9.065436e-01	 3.588923e-01	 3
-9.065436e-01	 -3.588923e-01	 7.500000e-01
-9.065436e-01	 -3.588923e-01	 1.875000e+00
-9.065436e-01	 3.588923e-01	 1.875000e+00
-9.065436e-01	 3.588923e-01	 1.500000e+00
-9.065436e-01	 -3.588923e-01	 2.250000e+00
-9.065436e-01	 3.588923e-01	 7.500000e-01
-9.065436e-01	 3.588923e-01	 2.250000e+00
-8.949212e-01	 3.542912e-01	 1.500000e+00
-8.949212e-01	 -3.542912e-01	 1.500000e+00
-8.949212e-01	 -3.542912e-01	 0
-8.949212e-01	 -3.542912e-01	 3.000000e+00
-8.949212e-01	 3.542912e-01	 0
-8.949212e-01	 3.542912e-01	 3.000000e+00
-8.949212e-01	 -3.542912e-01	 2.250000e+00
-8.949212e-01	 -3.542912e-01	 7.500000e-01
-8.949212e-01	 3.542912e-01	 2.250000e+00
-8.949212e-01	 3.542912e-01	 7.500000e-01
-8.832989e-01	 -3.496900e-01	 1.125000e+00
-8.832989e-01	 -3.496900e-01	 1.875000e+00
-8.832989e-01	 -3.496900e-01	 2.625000e+00
-8.832989e-01	 -3.496900e-01	 2.250000e+00
-8.832989e-01	 3.496900e-01	 1.125000e+00
-8.832989e-01	 -3.496900e-01	 0
-8.832989e-01	 -3.496900e-01	 3.000000e+00
-8.832989e-01	 -3.496900e-01	 3.750000e-01
-8.832989e-01	 -3.496900e-01	 7.500000e-01
-8.832989e-01	 3.496900e-01	 3.750000e-01
-8.832989e-01	 3.496900e-01	 7.500000e-01
-8.832989e-01	 3.496900e-01	 2.250000e+00
-8.832989e-01	 3.496900e-01	 2.625000e+00
-8.832989e-01	 3.496900e-01	 0
-8.832989e-01	 3.496900e-01	 1.875000e+00
-8.832989e-01	 3.496900e-01	 3.000000e+00
-8.832989e-01	 -3.496900e-01	 1.500000e+00
-8.832989e-01	 3.496900e-01	 1.500000e+00
-8.369955e-01	 -5.472098e-01	 0
-8.369955e-01	 -5.472098e-01	 7.500000e-01
-8.369955e-01	 -5.472098e-01	 1.500000e+00
-8.369955e-01	 -5.472098e-01	 2.250000e+00
-8.369955e-01	 -5.472098e-01	 3
-8.369955e-01	 5.472098e-01	 0
-8.369955e-01	 5.472098e-01	 7.500000e-01
-8.369955e-01	 5.472098e-01	 1.500000e+00
-8.369955e-01	 5.472098e-01	 2.250000e+00
-8.369955e-01	 5.472098e-01	 3
-8.160706e-01	 -5.335295e-01	 7.500000e-01
-8.160706e-01	 5.335295e-01	 7.500000e-01
-8.160706e-01	 -5.335295e-01	 1.500000e+00
-8.160706e-01	 -5.335295e-01	 2.250000e+00
-8.160706e-01	 5.335295e-01	 1.500000e+00
-8.160706e-01	 5.335295e-01	 2.250000e+00
-8.160706e-01	 -5.335295e-01	 0
-8.160706e-01	 -5.335295e-01	 3.000000e+00
-8.160706e-01	 5.335295e-01	 0
-8.160706e-01	 5.335295e-01	 3.000000e+00
-7.951457e-01	 -5.198493e-01	 7.500000e-01
-7.951457e-01	 5.198493e-01	 7.500000e-01
-7.951457e-01	 -5.198493e-01	 0
-7.951457e-01	 -5.198493e-01	 1.500000e+00
-7.951457e-01	 -5.198493e-01	 2.250000e+00
-7.951457e-01	 -5.198493e-01	 3
-7.951457e-01	 5.198493e-01	 0
-7.951457e-01	 5.198493e-01	 1.500000e+00
-7.951457e-01	 5.198493e-01	 2.250000e+00
-7.951457e-01	 5.198493e-01	 3
-7.071068e-01	 -7.071068e-01	 0
-7.071068e-01	 -7.071068e-01	 3.750000e-01
-7.071068e-01	 -7.071068e-01	 7.500000e-01
-7.071068e-01	 -7.071068e-01	 1.125000e+00
-7.071068e-01	 -7.071068e-01	 1.500000e+00
-7.071068e-01	 -7.071068e-01	 1.875000e+00
-7.071068e-01	 -7.071068e-01	 2.250000e+00
-7.071068e-01	 -7.071068e-01	 2.625000e+00
-7.071068e-01	 -7.071068e-01	 3.000000e+00
-7.071068e-01	 7.071068e-01	 0
-7.071068e-01	 7.071068e-01	 3.750000e-01
-7.071068e-01	 7.071068e-01	 7.500000e-01
-7.071068e-01	 7.071068e-01	 1.125000e+00
-7.071068e-01	 7.071068e-01	 1.500000e+00
-7.071068e-01	 7.071068e-01	 1.875000e+00
-7.071068e-01	 7.071068e-01	 2.250000e+00
-7.071068e-01	 7.071068e-01	 2.625000e+00
-7.071068e-01	 7.071068e-01	 3.000000e+00
-6.982679e-01	 -6.982679e-01	 7.500000e-01
-6.982679e-01	 6.982679e-01	 7.500000e-01
-6.982679e-01	 -6.982679e-01	 0
-6.982679e-01	 -6.982679e-01	 2.250000e+00
-6.982679e-01	 -6.982679e-01	 3.000000e+00
-6.982679e-01	 6.982679e-01	 0
-6.982679e-01	 6.982679e-01	 2.250000e+00
-6.982679e-01	 6.982679e-01	 3.000000e+00
-6.982679e-01	 -6.982679e-01	 1.500000e+00
-6.982679e-01	 6.982679e-01	 1.500000e+00
-6.894291e-01	 -6.894291e-01	 3.750000e-01
-6.894291e-01	 -6.894291e-01	 2.625000e+00
-6.894291e-01	 -6.894291e-01	 0
-6.894291e-01	 -6.894291e-01	 1.500000e+00
-6.894291e-01	 -6.894291e-01	 2.250000e+00
-6.894291e-01	 -6.894291e-01	 3.000000e+00
-6.894291e-01	 6.894291e-01	 3.750000e-01
-6.894291e-01	 6.894291e-01	 2.625000e+00
-6.894291e-01	 -6.894291e-01	 1.875000e+00
-6.894291e-01	 6.894291e-01	 1.875000e+00
-6.894291e-01	 -6.894291e-01	 7.500000e-01
-6.894291e-01	 -6.894291e-01	 1.125000e+00
-6.894291e-01	 6.894291e-01	 0
-6.894291e-01	 6.894291e-01	 1.500000e+00
-6.894291e-01	 6.894291e-01	 2.250000e+00
-6.894291e-01	 6.894291e-01	 3.000000e+00
-6.894291e-01	 6.894291e-01	 7.500000e-01
-6.894291e-01	 6.894291e-01	 1.125000e+00
-6.805903e-01	 6.805903e-01	 7.500000e-01
-6.805903e-01	 -6.805903e-01	 7.500000e-01
-6.805903e-01	 -6.805903e-01	 0
-6.805903e-01	 -6.805903e-01	 1.500000e+00
-6.805903e-01	 -6.805903e-01	 3.000000e+00
-6.805903e-01	 6.805903e-01	 0
-6.805903e-01	 6.805903e-01	 1.500000e+00
-6.805903e-01	 6.805903e-01	 3.000000e+00
-6.805903e-01	 6.805903e-01	 2.250000e+00
-6.805903e-01	 -6.805903e-01	 2.250000e+00
-6.717514e-01	 -6.717514e-01	 2.625000e+00
-6.717514e-01	 6.717514e-01	 2.625000e+00
-6.717514e-01	 -6.717514e-01	 0
-6.717514e-01	 -6.717514e-01	 3.750000e-01
-6.717514e-01	 -6.717514e-01	 7.500000e-01
-6.717514e-01	 -6.717514e-01	 1.125000e+00
-6.717514e-01	 -6.717514e-01	 1.875000e+00
-6.717514e-01	 -6.717514e-01	 3.000000e+00
-6.717514e-01	 -6.717514e-01	 2.250000e+00
-6.717514e-01	 6.717514e-01	 1.500000e+00
-6.717514e-01	 6.717514e-01	 0
-6.717514e-01	 6.717514e-01	 3.750000e-01
-6.717514e-01	 6.717514e-01	 7.500000e-01
-6.717514e-01	 6.717514e-01	 1.125000e+00
-6.717514e-01	 6.717514e-01	 1.875000e+00
-6.717514e-01	 6.717514e-01	 3.000000e+00
-6.717514e-01	 -6.717514e-01	 1.500000e+00
-6.717514e-01	 6.717514e-01	 2.250000e+00
-5.472098e-01	 -8.369955e-01	 0
-5.472098e-01	 -8.369955e-01	 7.500000e-01
-5.472098e-01	 -8.369955e-01	 1.500000e+00
-5.472098e-01	 -8.369955e-01	 2.250000e+00
-5.472098e-01	 -8.369955e-01	 3
-5.472098e-01	 8.369955e-01	 0
-5.472098e-01	 8.369955e-01	 7.500000e-01
-5.472098e-01	 8.369955e-01	 1.500000e+00
-5.472098e-01	 8.369955e-01	 2.250000e+00
-5.472098e-01	 8.369955e-01	 3
-5.335295e-01	 -8.160706e-01	 1.500000e+00
-5.335295e-01	 -8.160706e-01	 2.250000e+00
-5.335295e-01	 8.160706e-01	 0
-5.335295e-01	 8.160706e-01	 3.000000e+00
[...]
POINT_DATA 832
VECTORS displacement float
0	 0	 -4.220507e-10
-1.915141e-09	 1.927881e-02	 -2.701548e-10
-2.547583e-09	 2.775569e-02	 4.066295e-12
-1.902570e-09	 1.927881e-02	 2.777234e-10
2.475479e-11	 1.007834e-11	 4.280767e-10
1.950163e-09	 -1.927881e-02	 2.732756e-10
2.590757e-09	 -2.775569e-02	 -5.369321e-12
1.944236e-09	 -1.927881e-02	 -2.848027e-10
0	 0	 -4.393641e-10
0	 0	 -3.392545e-10
2.475445e-11	 1.004567e-11	 3.449157e-10
0	 0	 -3.553951e-10
2.599228e-09	 -2.924085e-02	 -5.351290e-12
-2.555987e-09	 2.924085e-02	 3.830548e-12
2.011865e-02	 2.956553e-02	 3.052817e-12
0	 0	 4.137979e-03
2.751953e-11	 9.385857e-12	 -4.137979e-03
0	 0	 4.137979e-03
2.011866e-02	 -2.956553e-02	 -4.742435e-12
0	 0	 -4.137980e-03
2.887745e-11	 1.060753e-11	 4.137980e-03
0	 0	 -4.137980e-03
-2.011866e-02	 2.956553e-02	 4.790771e-12
-2.011865e-02	 -2.956553e-02	 -6.090809e-12
-2.562794e-09	 3.072395e-02	 3.591856e-12
-1.912387e-09	 2.150042e-02	 1.899472e-10
0	 0	 -2.565944e-10
-1.925016e-09	 2.150042e-02	 -1.831606e-10
1.960114e-09	 -2.150042e-02	 1.855848e-10
1.954166e-09	 -2.150042e-02	 -1.963209e-10
0	 0	 -2.715653e-10
2.478270e-11	 1.001075e-11	 2.618921e-10
2.606117e-09	 -3.072395e-02	 -5.327494e-12
2.480378e-11	 9.979357e-12	 1.786847e-10
2.612786e-09	 -3.219560e-02	 -5.302719e-12
0	 0	 -1.737516e-10
-2.569380e-09	 3.219560e-02	 3.352373e-12
0	 0	 -1.875539e-10
0	 0	 2.533968e-03
0	 0	 2.533968e-03
2.741800e-11	 1.023409e-11	 -2.533968e-03
0	 0	 -2.533968e-03
0	 0	 -2.533968e-03
2.875013e-11	 9.559528e-12	 2.533968e-03
-1.975468e-02	 3.206277e-02	 4.209803e-12
1.975467e-02	 3.206277e-02	 2.519398e-12
-1.975467e-02	 -3.206277e-02	 -5.780452e-12
1.975468e-02	 -3.206277e-02	 -4.619781e-12
0	 0	 -9.044414e-11
-1.930626e-09	 2.372169e-02	 -9.576210e-11
-1.917899e-09	 2.372169e-02	 1.017630e-10
2.486252e-11	 9.948796e-12	 9.501149e-11
1.965848e-09	 -2.372169e-02	 9.748715e-11
2.617755e-09	 -3.368071e-02	 -5.283194e-12
1.959803e-09	 -2.372169e-02	 -1.074339e-10
0	 0	 -1.030728e-10
-2.574248e-09	 3.368071e-02	 3.114569e-12
2.736910e-11	 1.110364e-11	 -9.240929e-04
0	 0	 9.240929e-04
0	 0	 9.240929e-04
1.933753e-02	 -3.457673e-02	 -4.497117e-12
0	 0	 -9.240930e-04
2.865418e-11	 8.489373e-12	 9.240931e-04
0	 0	 -9.240931e-04
1.933752e-02	 3.457673e-02	 1.982591e-12
-1.933752e-02	 -3.457673e-02	 -5.470215e-12
-1.933753e-02	 3.457673e-02	 3.624512e-12
2.736388e-02	 2.596696e-02	 -4.988568e-03
0	 0	 7.766884e-03
3.588072e-02	 3.598048e-02	 2.275150e-12
3.560896e-11	 1.192269e-11	 -7.766884e-03
-2.736388e-02	 -2.596696e-02	 -4.988568e-03
-3.588072e-02	 -3.598048e-02	 -6.893612e-12
-2.736388e-02	 -2.596696e-02	 4.988568e-03
0	 0	 7.766884e-03
2.736388e-02	 2.596696e-02	 4.988568e-03
-2.736389e-02	 2.596696e-02	 -4.988569e-03
3.588073e-02	 -3.598048e-02	 -3.602404e-12
2.736389e-02	 -2.596696e-02	 -4.988569e-03
0	 0	 -7.766885e-03
-3.588073e-02	 3.598048e-02	 5.141052e-12
3.835668e-11	 8.006276e-12	 7.766885e-03
2.736389e-02	 -2.596696e-02	 4.988569e-03
0	 0	 -7.766885e-03
-2.736389e-02	 2.596696e-02	 4.988569e-03
-3.565787e-02	 3.696934e-02	 4.757678e-12
0	 0	 6.260172e-03
3.565787e-02	 3.696934e-02	 1.877874e-12
-3.565787e-02	 -3.696934e-02	 -6.501883e-12
0	 0	 6.260172e-03
0	 0	 -6.260172e-03
3.565787e-02	 -3.696934e-02	 -3.462486e-12
0	 0	 -6.260172e-03
3.545320e-11	 1.249380e-11	 -6.260172e-03
3.819333e-11	 7.348364e-12	 6.260172e-03
2.698359e-02	 2.740743e-02	 -3.398323e-03
-2.698359e-02	 -2.740743e-02	 3.398323e-03
0	 0	 4.756252e-03
2.698359e-02	 2.740743e-02	 3.398323e-03
3.528981e-11	 1.303164e-11	 -4.756252e-03
0	 0	 4.756252e-03
2.698359e-02	 -2.740743e-02	 -3.398323e-03
-2.698359e-02	 2.740743e-02	 3.398323e-03
0	 0	 -4.756252e-03
-2.698359e-02	 2.740743e-02	 -3.398323e-03
0	 0	 -4.756252e-03
3.540602e-02	 3.794862e-02	 1.481759e-12
-2.698359e-02	 -2.740743e-02	 -3.398323e-03
2.698359e-02	 -2.740743e-02	 3.398323e-03
3.801191e-11	 6.728006e-12	 4.756252e-03
-3.540602e-02	 -3.794862e-02	 -6.108896e-12
-3.540602e-02	 3.794862e-02	 4.376885e-12
3.540602e-02	 -3.794862e-02	 -3.324655e-12
3.781712e-11	 6.105620e-12	 3.250069e-03
3.512694e-11	 1.357546e-11	 -3.250069e-03
0	 0	 3.250069e-03
0	 0	 3.250069e-03
0	 0	 -3.250069e-03
0	 0	 -3.250069e-03
-3.515626e-02	 -3.891972e-02	 -5.716291e-12
3.515626e-02	 3.891972e-02	 1.084997e-12
3.515626e-02	 -3.891972e-02	 -3.187117e-12
-3.515626e-02	 3.891972e-02	 3.995532e-12
2.653058e-02	 2.881996e-02	 -1.801582e-03
-2.653058e-02	 -2.881996e-02	 -1.801582e-03
-2.653058e-02	 -2.881996e-02	 1.801582e-03
-3.487256e-02	 -3.988593e-02	 -5.323356e-12
-2.653058e-02	 2.881996e-02	 1.801582e-03
0	 0	 1.735157e-03
0	 0	 1.735157e-03
2.653058e-02	 2.881996e-02	 1.801582e-03
3.487256e-02	 3.988593e-02	 6.858187e-13
-2.653058e-02	 2.881996e-02	 -1.801582e-03
-3.487257e-02	 3.988593e-02	 3.609661e-12
3.487257e-02	 -3.988593e-02	 -3.049053e-12
2.653058e-02	 -2.881996e-02	 -1.801582e-03
0	 0	 -1.735157e-03
2.653058e-02	 -2.881996e-02	 1.801582e-03
0	 0	 -1.735157e-03
3.493153e-11	 1.412116e-11	 -1.735157e-03
3.757749e-11	 5.489040e-12	 1.735157e-03
0	 0	 1.046542e-02
4.658167e-02	 4.341707e-02	 1.300834e-12
3.513200e-11	 1.416223e-11	 -1.046542e-02
-4.658167e-02	 -4.341707e-02	 -7.209121e-12
0	 0	 1.046542e-02
0	 0	 -1.046542e-02
-4.658167e-02	 4.341707e-02	 4.504754e-12
3.782015e-11	 5.928369e-12	 1.046542e-02
4.658167e-02	 -4.341707e-02	 -1.479098e-12
0	 0	 -1.046542e-02
4.623714e-02	 4.438783e-02	 4.148953e-13
-4.623714e-02	 4.438783e-02	 3.787364e-12
3.581211e-11	 1.331283e-11	 -6.491791e-03
-4.623714e-02	 -4.438783e-02	 -6.125707e-12
3.859659e-11	 6.994865e-12	 6.491792e-03
4.623714e-02	 -4.438783e-02	 -1.151961e-12
0	 0	 6.491791e-03
0	 0	 6.491791e-03
0	 0	 -6.491791e-03
0	 0	 -6.491792e-03
4.580284e-02	 4.531177e-02	 -4.746395e-13
-4.580284e-02	 4.531177e-02	 3.067115e-12
0	 0	 2.505877e-03
3.636274e-11	 1.237726e-11	 -2.505877e-03
-4.580284e-02	 -4.531177e-02	 -5.041832e-12
0	 0	 2.505877e-03
0	 0	 -2.505877e-03
3.922069e-11	 8.173604e-12	 2.505877e-03
4.580284e-02	 -4.531177e-02	 -8.280285e-13
0	 0	 -2.505877e-03
0	 0	 1.119811e-02
3.551598e-02	 3.551599e-02	 7.208728e-03
4.730855e-02	 4.730855e-02	 -5.360400e-13
3.551598e-02	 3.551599e-02	 -7.208728e-03
1.894769e-11	 4.218610e-12	 -1.119811e-02
-3.551598e-02	 -3.551599e-02	 -7.208728e-03
-4.730855e-02	 -4.730855e-02	 -6.584968e-12
-3.551598e-02	 -3.551599e-02	 7.208728e-03
0	 0	 1.119811e-02
0	 0	 -1.119811e-02
-3.551599e-02	 3.551598e-02	 -7.208728e-03
-4.730855e-02	 4.730855e-02	 2.448395e-12
-3.551599e-02	 3.551598e-02	 7.208728e-03
1.946038e-11	 1.829197e-11	 1.119811e-02
3.551599e-02	 -3.551598e-02	 7.208728e-03
4.730855e-02	 -4.730855e-02	 2.209867e-12
3.551599e-02	 -3.551598e-02	 -7.208728e-03
0	 0	 -1.119811e-02
4.746698e-02	 4.746698e-02	 -8.410151e-13
-4.746698e-02	 4.746698e-02	 2.362583e-12
0	 0	 9.039358e-03
-4.746698e-02	 -4.746698e-02	 -6.080413e-12
0	 0	 9.039358e-03
0	 0	 -9.039358e-03
4.746698e-02	 -4.746698e-02	 2.144350e-12
0	 0	 -9.039358e-03
2.017860e-11	 3.102528e-12	 -9.039358e-03
2.085068e-11	 1.961545e-11	 9.039358e-03
3.569454e-02	 3.569454e-02	 4.917447e-03
-3.569454e-02	 -3.569454e-02	 4.917447e-03
0	 0	 6.883862e-03
2.137428e-11	 1.986382e-12	 -6.883862e-03
-4.759683e-02	 -4.759684e-02	 -5.580807e-12
0	 0	 6.883862e-03
-3.569454e-02	 3.569454e-02	 -4.917447e-03
3.569454e-02	 -3.569454e-02	 -4.917447e-03
-3.569454e-02	 -3.569454e-02	 -4.917447e-03
3.569454e-02	 -3.569454e-02	 4.917447e-03
4.759683e-02	 4.759684e-02	 -1.143973e-12
3.569454e-02	 3.569454e-02	 -4.917447e-03
0	 0	 -6.883862e-03
2.220686e-11	 2.093696e-11	 6.883862e-03
4.759684e-02	 -4.759683e-02	 2.077395e-12
0	 0	 -6.883862e-03
-4.759684e-02	 4.759683e-02	 2.279629e-12
-3.569454e-02	 3.569454e-02	 4.917447e-03
-4.772456e-02	 4.772456e-02	 2.195811e-12
4.772456e-02	 4.772456e-02	 -1.446522e-12
0	 0	 4.724640e-03
2.257026e-11	 8.758259e-13	 -4.724640e-03
0	 0	 4.724640e-03
0	 0	 -4.724640e-03
2.355694e-11	 2.225330e-11	 4.724640e-03
0	 0	 -4.724640e-03
4.772456e-02	 -4.772456e-02	 2.009010e-12
-4.772456e-02	 -4.772456e-02	 -5.080911e-12
-3.579868e-02	 -3.579868e-02	 2.615752e-03
3.579868e-02	 -3.579868e-02	 -2.615752e-03
0	 0	 2.553352e-03
3.579868e-02	 3.579868e-02	 2.615752e-03
4.782166e-02	 4.782166e-02	 -1.754925e-12
3.579868e-02	 3.579868e-02	 -2.615752e-03
-3.579868e-02	 -3.579868e-02	 -2.615752e-03
0	 0	 2.553352e-03
-4.782166e-02	 -4.782166e-02	 -4.575225e-12
2.490083e-11	 2.360153e-11	 2.553352e-03
0	 0	 -2.553352e-03
-3.579868e-02	 3.579868e-02	 -2.615752e-03
-4.782166e-02	 4.782166e-02	 2.109259e-12
-3.579868e-02	 3.579868e-02	 2.615752e-03
3.579868e-02	 -3.579868e-02	 2.615752e-03
0	 0	 -2.553352e-03
2.375131e-11	 -2.647182e-13	 -2.553352e-03
4.782166e-02	 -4.782166e-02	 1.942689e-12
0	 0	 1.046542e-02
4.341707e-02	 4.658167e-02	 -2.562712e-12
4.669198e-12	 -1.330753e-11	 -1.046542e-02
-4.341707e-02	 -4.658167e-02	 -5.601151e-12
0	 0	 1.046542e-02
0	 0	 -1.046542e-02
-4.341707e-02	 4.658167e-02	 -1.387002e-13
6.848867e-13	 4.115942e-11	 1.046542e-02
4.341707e-02	 -4.658167e-02	 6.080617e-12
0	 0	 -1.046542e-02
6.489829e-12	 -1.440590e-11	 -6.491791e-03
-4.438783e-02	 -4.623714e-02	 -4.966771e-12
0	 0	 -6.491791e-03
0	 0	 -6.491791e-03
3.427893e-12	 4.298248e-11	 6.491791e-03
4.438783e-02	 -4.623714e-02	 5.275784e-12
4.438783e-02	 4.623714e-02	 -2.686679e-12
0	 0	 6.491791e-03
0	 0	 6.491791e-03
-4.438783e-02	 4.623714e-02	 4.839463e-13
-4.531177e-02	 4.580283e-02	 1.105586e-12
4.531177e-02	 4.580284e-02	 -2.814092e-12
0	 0	 2.505877e-03
8.365926e-12	 -1.545854e-11	 -2.505877e-03
-4.531177e-02	 -4.580284e-02	 -4.326151e-12
0	 0	 2.505877e-03
0	 0	 -2.505877e-03
6.225997e-12	 4.477691e-11	 2.505877e-03
4.531177e-02	 -4.580283e-02	 4.470509e-12
0	 0	 -2.505877e-03
2.596696e-02	 2.736389e-02	 -4.988569e-03
-2.596696e-02	 2.736388e-02	 4.988568e-03
0	 0	 7.766885e-03
3.598048e-02	 3.588073e-02	 -3.903979e-12
8.428245e-13	 -2.288156e-11	 -7.766885e-03
-2.596696e-02	 -2.736389e-02	 -4.988569e-03
0	 0	 7.766885e-03
0	 0	 -7.766884e-03
-3.598048e-02	 3.588072e-02	 -1.954350e-12
-8.869844e-12	 6.111601e-11	 7.766884e-03
2.596696e-02	 -2.736388e-02	 4.988568e-03
3.598048e-02	 -3.588072e-02	 8.555480e-12
2.596696e-02	 -2.736388e-02	 -4.988568e-03
0	 0	 -7.766884e-03
2.596696e-02	 2.736389e-02	 4.988569e-03
-3.598048e-02	 -3.588073e-02	 -4.957254e-12
-2.596696e-02	 -2.736389e-02	 4.988569e-03
-2.596696e-02	 2.736388e-02	 -4.988568e-03
9.560788e-13	 -2.296049e-11	 -6.260172e-03
-7.913219e-12	 6.162400e-11	 6.260172e-03
3.696934e-02	 3.565787e-02	 -3.755306e-12
0	 0	 6.260172e-03
-3.696934e-02	 -3.565787e-02	 -4.793251e-12
0	 0	 6.260172e-03
0	 0	 -6.260172e-03
-3.696934e-02	 3.565787e-02	 -1.342214e-12
3.696934e-02	 -3.565787e-02	 7.913997e-12
0	 0	 -6.260172e-03
-3.794862e-02	 -3.540602e-02	 -4.628583e-12
3.794862e-02	 -3.540602e-02	 7.274108e-12
-2.740743e-02	 2.698359e-02	 3.398323e-03
2.740743e-02	 -2.698359e-02	 -3.398323e-03
0	 0	 4.756252e-03
2.740743e-02	 2.698359e-02	 3.398323e-03
0	 0	 4.756252e-03
1.068326e-12	 -2.300139e-11	 -4.756252e-03
0	 0	 -4.756251e-03
-2.740743e-02	 2.698359e-02	 -3.398323e-03
-6.942897e-12	 6.208734e-11	 4.756251e-03
0	 0	 -4.756251e-03
2.740743e-02	 2.698359e-02	 -3.398323e-03
-2.740743e-02	 -2.698359e-02	 -3.398323e-03
3.794862e-02	 3.540602e-02	 -3.609227e-12
-3.794862e-02	 3.540602e-02	 -7.336155e-13
2.740743e-02	 -2.698359e-02	 3.398323e-03
-2.740743e-02	 -2.698359e-02	 3.398323e-03
1.189445e-12	 -2.304168e-11	 -3.250069e-03
-3.891972e-02	 -3.515626e-02	 -4.464493e-12
3.891972e-02	 -3.515626e-02	 6.633921e-12
0	 0	 -3.250069e-03
0	 0	 -3.250069e-03
-5.983969e-12	 6.253837e-11	 3.250069e-03
0	 0	 3.250069e-03
0	 0	 3.250069e-03
3.891972e-02	 3.515626e-02	 -3.462469e-12
-3.891972e-02	 3.515626e-02	 -1.239869e-13
2.881996e-02	 2.653058e-02	 -1.801582e-03
0	 0	 1.735157e-03
-2.881996e-02	 -2.653058e-02	 -1.801582e-03
0	 0	 1.735157e-03
1.333141e-12	 -2.304240e-11	 -1.735157e-03
0	 0	 -1.735157e-03
0	 0	 -1.735157e-03
-2.881996e-02	 2.653058e-02	 1.801582e-03
2.881996e-02	 -2.653058e-02	 1.801582e-03
2.881996e-02	 -2.653058e-02	 -1.801582e-03
2.881996e-02	 2.653058e-02	 1.801582e-03
3.988593e-02	 3.487257e-02	 -3.313112e-12
-3.988593e-02	 -3.487257e-02	 -4.297391e-12
-2.881996e-02	 -2.653058e-02	 1.801582e-03
-4.996260e-12	 6.294307e-11	 1.735157e-03
-2.881996e-02	 2.653058e-02	 -1.801582e-03
3.988593e-02	 -3.487256e-02	 5.989966e-12
-3.988593e-02	 3.487256e-02	 4.882578e-13
2.956553e-02	 2.011866e-02	 -4.065219e-12
-2.956553e-02	 2.011865e-02	 -2.385533e-12
0	 0	 4.137980e-03
4.759297e-12	 -1.571253e-11	 -4.137980e-03
0	 0	 4.137980e-03
0	 0	 -4.137979e-03
-8.116485e-12	 6.684903e-11	 4.137979e-03
0	 0	 -4.137979e-03
-2.956553e-02	 -2.011866e-02	 -4.455089e-12
2.956553e-02	 -2.011865e-02	 9.465429e-12
3.206277e-02	 1.975468e-02	 -3.654766e-12
0	 0	 2.533968e-03
0	 0	 2.533968e-03
-3.206277e-02	 1.975467e-02	 -1.038716e-12
3.206277e-02	 -1.975467e-02	 8.129294e-12
0	 0	 -2.533968e-03
0	 0	 -2.533968e-03
-3.206277e-02	 -1.975468e-02	 -4.322637e-12
-9.171759e-12	 6.675230e-11	 2.533968e-03
2.482563e-12	 -1.529637e-11	 -2.533968e-03
-1.018567e-11	 6.641102e-11	 9.240929e-04
0	 0	 9.240930e-04
2.231384e-13	 -1.471286e-11	 -9.240931e-04
0	 0	 9.240930e-04
0	 0	 -9.240928e-04
0	 0	 -9.240928e-04
-3.457673e-02	 -1.933753e-02	 -4.184878e-12
3.457673e-02	 1.933753e-02	 -3.245333e-12
-3.457673e-02	 1.933752e-02	 3.067427e-13
3.457673e-02	 -1.933752e-02	 6.792341e-12
0	 0	 4.467594e-10
1.927881e-02	 2.038269e-09	 2.874339e-10
2.775569e-02	 2.717430e-09	 -3.105782e-12
1.927881e-02	 2.037529e-09	 -2.932713e-10
8.996938e-12	 9.982324e-12	 -4.520711e-10
-1.927881e-02	 -2.015222e-09	 -2.934877e-10
-2.775569e-02	 -2.694135e-09	 -4.651854e-12
-1.927881e-02	 -2.021779e-09	 2.843610e-10
0	 0	 4.430406e-10
0	 0	 3.593194e-10
6.654190e-12	 1.001312e-11	 -3.651758e-10
0	 0	 3.562079e-10
-2.924085e-02	 -2.703219e-09	 -4.498099e-12
2.924085e-02	 2.726624e-09	 -3.019706e-12
3.072395e-02	 2.733910e-09	 -2.935498e-12
2.150042e-02	 2.047780e-09	 -2.002564e-10
0	 0	 2.720669e-10
2.150042e-02	 2.048519e-09	 1.941237e-10
-2.150042e-02	 -2.025357e-09	 -2.007527e-10
-2.150042e-02	 -2.031974e-09	 1.919127e-10
0	 0	 2.695502e-10
4.368200e-12	 1.003504e-11	 -2.784627e-10
-3.072395e-02	 -2.710456e-09	 -4.345526e-12
2.071522e-12	 1.006099e-11	 -1.915617e-10
-3.219560e-02	 -2.717440e-09	 -4.192867e-12
0	 0	 1.846246e-10
3.219560e-02	 2.740930e-09	 -2.852021e-12
0	 0	 1.827039e-10
0	 0	 9.666044e-11
2.372169e-02	 2.053895e-09	 1.003855e-10
2.372169e-02	 2.053180e-09	 -1.068172e-10
-2.444870e-13	 1.006886e-11	 -1.041469e-10
-2.372169e-02	 -2.030747e-09	 -1.075919e-10
-3.368071e-02	 -2.722411e-09	 -4.038512e-12
-2.372169e-02	 -2.037410e-09	 9.903959e-11
0	 0	 9.534850e-11
3.368071e-02	 2.745860e-09	 -2.765751e-12
-3.368071e-02	 -2.745890e-09	 9.117698e-13
0	 0	 1.010657e-10
-2.372169e-02	 -2.059262e-09	 1.046518e-10
-2.372169e-02	 -2.032492e-09	 -1.024614e-10
-1.279300e-11	 4.647370e-11	 -9.761792e-11
2.372169e-02	 2.114318e-09	 -9.933599e-11
3.368071e-02	 2.802849e-09	 6.942258e-12
2.372169e-02	 2.088586e-09	 1.128201e-10
0	 0	 1.098315e-10
0	 0	 1.893147e-10
-3.219560e-02	 -2.740900e-09	 4.436359e-13
0	 0	 1.991318e-10
-1.052471e-11	 4.647774e-11	 -1.863579e-10
3.219560e-02	 2.797866e-09	 7.377094e-12
-8.281678e-12	 4.643411e-11	 -2.745727e-10
3.072395e-02	 2.790757e-09	 7.809109e-12
0	 0	 2.770383e-10
-2.150042e-02	 -2.053889e-09	 1.984541e-10
2.150042e-02	 2.108913e-09	 -1.933747e-10
2.150042e-02	 2.083172e-09	 2.084706e-10
0	 0	 2.879082e-10
-3.072395e-02	 -2.733813e-09	 -2.006629e-14
-2.150042e-02	 -2.027085e-09	 -1.978754e-10
-2.924085e-02	 -2.726460e-09	 -4.863625e-13
2.924085e-02	 2.783376e-09	 8.238916e-12
0	 0	 3.645720e-10
-6.020117e-12	 4.637232e-11	 -3.625983e-10
0	 0	 3.764923e-10
0	 0	 4.522971e-10
-1.927881e-02	 -2.043608e-09	 2.918268e-10
-2.775569e-02	 -2.717190e-09	 -9.550330e-13
-1.927881e-02	 -2.016845e-09	 -2.928573e-10
-3.739138e-12	 4.627312e-11	 -4.508130e-10
1.927881e-02	 2.098504e-09	 -2.869868e-10
2.775569e-02	 2.774050e-09	 8.672629e-12
1.927881e-02	 2.072819e-09	 3.036871e-10
0	 0	 4.652666e-10
3.457673e-02	 -1.933752e-02	 -1.942990e-12
-3.457673e-02	 1.933752e-02	 -3.600805e-12
-3.457673e-02	 -1.933753e-02	 1.796866e-12
3.457673e-02	 1.933753e-02	 6.824109e-12
0	 0	 -9.240929e-04
0	 0	 -9.240929e-04
0	 0	 9.240931e-04
-1.474569e-11	 1.605950e-11	 -9.240930e-04
0	 0	 9.240931e-04
2.478934e-12	 3.011287e-11	 9.240928e-04
-1.081016e-11	 1.524351e-11	 -2.533968e-03
3.259995e-12	 3.049631e-11	 2.533968e-03
3.206277e-02	 1.975468e-02	 6.969142e-12
0	 0	 -2.533968e-03
0	 0	 -2.533968e-03
3.206277e-02	 -1.975467e-02	 -1.898003e-12
-3.206277e-02	 1.975467e-02	 -3.983593e-12
0	 0	 2.533968e-03
0	 0	 2.533968e-03
-3.206277e-02	 -1.975468e-02	 1.566420e-12
-2.956553e-02	 2.011865e-02	 -4.371512e-12
2.956553e-02	 2.011866e-02	 7.112215e-12
0	 0	 -4.137979e-03
4.095050e-12	 3.060207e-11	 4.137979e-03
0	 0	 -4.137979e-03
0	 0	 4.137980e-03
-6.894560e-12	 1.449955e-11	 -4.137980e-03
0	 0	 4.137980e-03
2.956553e-02	 -2.011865e-02	 -1.850899e-12
-2.956553e-02	 -2.011866e-02	 1.333931e-12
3.988593e-02	 -3.487256e-02	 -1.332541e-12
-3.988593e-02	 3.487256e-02	 -2.370341e-12
2.881996e-02	 -2.653058e-02	 -1.801582e-03
1.074416e-11	 2.224531e-11	 1.735157e-03
-2.881996e-02	 -2.653058e-02	 1.801582e-03
-3.988593e-02	 -3.487257e-02	 3.156062e-12
3.988593e-02	 3.487257e-02	 6.390830e-12
2.881996e-02	 2.653058e-02	 1.801582e-03
2.881996e-02	 -2.653058e-02	 1.801582e-03
-2.881996e-02	 2.653058e-02	 1.801582e-03
-2.881996e-02	 2.653058e-02	 -1.801582e-03
0	 0	 -1.735157e-03
0	 0	 -1.735157e-03
-2.029460e-11	 -7.477237e-12	 -1.735157e-03
0	 0	 1.735157e-03
2.881996e-02	 2.653058e-02	 -1.801582e-03
0	 0	 1.735157e-03
-2.881996e-02	 -2.653058e-02	 -1.801582e-03
3.891972e-02	 -3.515626e-02	 -1.455400e-12
-3.891972e-02	 -3.515626e-02	 3.377022e-12
0	 0	 3.250069e-03
0	 0	 3.250069e-03
8.994995e-12	 2.165106e-11	 3.250069e-03
0	 0	 -3.250069e-03
0	 0	 -3.250069e-03
-3.891972e-02	 3.515626e-02	 -2.348659e-12
3.891972e-02	 3.515626e-02	 6.122363e-12
-1.917406e-11	 -7.938492e-12	 -3.250069e-03
2.740743e-02	 2.698359e-02	 3.398323e-03
3.794862e-02	 -3.540602e-02	 -1.578584e-12
-2.740743e-02	 2.698359e-02	 3.398323e-03
-3.794862e-02	 -3.540602e-02	 3.592932e-12
2.740743e-02	 2.698359e-02	 -3.398323e-03
-2.740743e-02	 -2.698359e-02	 -3.398323e-03
0	 0	 -4.756251e-03
2.740743e-02	 -2.698359e-02	 -3.398323e-03
7.288540e-12	 2.100430e-11	 4.756251e-03
0	 0	 -4.756251e-03
-1.804220e-11	 -8.333331e-12	 -4.756252e-03
0	 0	 4.756252e-03
-2.740743e-02	 -2.698359e-02	 3.398323e-03
0	 0	 4.756252e-03
2.740743e-02	 -2.698359e-02	 3.398323e-03
-2.740743e-02	 2.698359e-02	 -3.398323e-03
-3.794862e-02	 3.540602e-02	 -2.324529e-12
3.794862e-02	 3.540602e-02	 5.858787e-12
0	 0	 -6.260172e-03
3.696934e-02	 -3.565787e-02	 -1.701589e-12
-3.696934e-02	 3.565787e-02	 -2.300709e-12
0	 0	 -6.260172e-03
0	 0	 6.260172e-03
3.696934e-02	 3.565787e-02	 5.593780e-12
0	 0	 6.260172e-03
-3.696934e-02	 -3.565787e-02	 3.808471e-12
5.580107e-12	 2.034082e-11	 6.260172e-03
-1.690542e-11	 -8.723884e-12	 -6.260172e-03
2.596696e-02	 -2.736388e-02	 -4.988568e-03
-2.596696e-02	 -2.736389e-02	 4.988569e-03
3.598048e-02	 3.588073e-02	 5.324073e-12
2.596696e-02	 2.736389e-02	 4.988569e-03
0	 0	 -7.766884e-03
3.598048e-02	 -3.588072e-02	 -1.822799e-12
3.864501e-12	 1.961625e-11	 7.766884e-03
-2.596696e-02	 2.736388e-02	 4.988568e-03
-3.598048e-02	 3.588072e-02	 -2.280417e-12
-2.596696e-02	 2.736388e-02	 -4.988568e-03
0	 0	 -7.766884e-03
0	 0	 7.766885e-03
-3.598048e-02	 -3.588073e-02	 4.028552e-12
-1.574044e-11	 -9.072378e-12	 -7.766885e-03
2.596696e-02	 2.736389e-02	 -4.988569e-03
0	 0	 7.766885e-03
2.596696e-02	 -2.736388e-02	 4.988568e-03
-2.596696e-02	 -2.736389e-02	 -4.988569e-03
0	 0	 -2.505877e-03
2.655930e-11	 -6.347635e-12	 2.505877e-03
-4.531177e-02	 4.580283e-02	 -8.194022e-13
0	 0	 -2.505877e-03
0	 0	 2.505877e-03
-2.113835e-11	 -1.519000e-11	 -2.505877e-03
4.531177e-02	 4.580284e-02	 5.742956e-12