# vtk DataFile Version 3.0
Unstructured Grid Example
ASCII
DATASET UNSTRUCTURED_GRID
POINTS 832 float
-1	 0	 0
-1	 0	 3.750000e-01
-1	 0	 7.500000e-01
-1	 0	 1.125000e+00
-1	 0	 1.500000e+00
-1	 0	 1.875000e+00
-1	 0	 2.250000e+00
-1	 0	 2.625000e+00
-1	 0	 3
-9.875000e-01	 0	 0
-9.875000e-01	 0	 1.500000e+00
-9.875000e-01	 0	 3
-9.875000e-01	 0	 2.250000e+00
-9.875000e-01	 0	 7.500000e-01
-9.833054e-01	 -1.819631e-01	 7.500000e-01
-9.833054e-01	 -1.819631e-01	 0
-9.833054e-01	 -1.819631e-01	 1.500000e+00
-9.833054e-01	 -1.819631e-01	 3.000000e+00
-9.833054e-01	 1.819631e-01	 2.250000e+00
-9.833054e-01	 1.819631e-01	 0
-9.833054e-01	 1.819631e-01	 1.500000e+00
-9.833054e-01	 1.819631e-01	 3.000000e+00
-9.833054e-01	 1.819631e-01	 7.500000e-01
-9.833054e-01	 -1.819631e-01	 2.250000e+00
-9.750000e-01	 0	 7.500000e-01
-9.750000e-01	 0	 1.125000e+00
-9.750000e-01	 0	 0
-9.750000e-01	 0	 3.750000e-01
-9.750000e-01	 0	 1.875000e+00
-9.750000e-01	 0	 2.625000e+00
-9.750000e-01	 0	 3
-9.750000e-01	 0	 1.500000e+00
-9.750000e-01	 0	 2.250000e+00
-9.625000e-01	 0	 1.500000e+00
-9.625000e-01	 0	 2.250000e+00
-9.625000e-01	 0	 0
-9.625000e-01	 0	 7.500000e-01
-9.625000e-01	 0	 3
-9.587227e-01	 -1.774140e-01	 0
-9.587227e-01	 -1.774140e-01	 3.000000e+00
-9.587227e-01	 -1.774140e-01	 1.500000e+00
-9.587227e-01	 1.774140e-01	 0
-9.587227e-01	 1.774140e-01	 3.000000e+00
-9.587227e-01	 1.774140e-01	 1.500000e+00
-9.587227e-01	 1.774140e-01	 7.500000e-01
-9.587227e-01	 -1.774140e-01	 7.500000e-01
-9.587227e-01	 -1.774140e-01	 2.250000e+00
-9.587227e-01	 1.774140e-01	 2.250000e+00
-9.500000e-01	 0	 0
-9.500000e-01	 0	 3.750000e-01
-9.500000e-01	 0	 1.125000e+00
-9.500000e-01	 0	 1.500000e+00
-9.500000e-01	 0	 1.875000e+00
-9.500000e-01	 0	 2.250000e+00
-9.500000e-01	 0	 2.625000e+00
-9.500000e-01	 0	 3
-9.500000e-01	 0	 7.500000e-01
-9.341401e-01	 -1.728649e-01	 1.500000e+00
-9.341401e-01	 -1.728649e-01	 0
-9.341401e-01	 -1.728649e-01	 3.000000e+00
-9.341401e-01	 1.728649e-01	 2.250000e+00
-9.341401e-01	 1.728649e-01	 0
-9.341401e-01	 1.728649e-01	 1.500000e+00
-9.341401e-01	 1.728649e-01	 3.000000e+00
-9.341401e-01	 -1.728649e-01	 7.500000e-01
-9.341401e-01	 -1.728649e-01	 2.250000e+00
-9.341401e-01	 1.728649e-01	 7.500000e-01
-9.297883e-01	 -3.680947e-01	 1.125000e+00
-9.297883e-01	 -3.680947e-01	 0
-9.297883e-01	 -3.680947e-01	 7.500000e-01
-9.297883e-01	 -3.680947e-01	 1.500000e+00
-9.297883e-01	 -3.680947e-01	 1.875000e+00
-9.297883e-01	 -3.680947e-01	 2.250000e+00
-9.297883e-01	 -3.680947e-01	 2.625000e+00
-9.297883e-01	 -3.680947e-01	 3.000000e+00
-9.297883e-01	 -3.680947e-01	 3.750000e-01
-9.297883e-01	 3.680947e-01	 3.750000e-01
-9.297883e-01	 3.680947e-01	 2.250000e+00
-9.297883e-01	 3.680947e-01	 2.625000e+00
-9.297883e-01	 3.680947e-01	 0
-9.297883e-01	 3.680947e-01	 7.500000e-01
-9.297883e-01	 3.680947e-01	 1.500000e+00
-9.297883e-01	 3.680947e-01	 1.875000e+00
-9.297883e-01	 3.680947e-01	 3.000000e+00
-9.297883e-01	 3.680947e-01	 1.125000e+00
-9.181659e-01	 3.634935e-01	 7.500000e-01
-9.181659e-01	 -3.634935e-01	 0
-9.181659e-01	 -3.634935e-01	 7.500000e-01
-9.181659e-01	 -3.634935e-01	 2.250000e+00
-9.181659e-01	 -3.634935e-01	 3
-9.181659e-01	 3.634935e-01	 0
-9.181659e-01	 3.634935e-01	 2.250000e+00
-9.181659e-01	 3.634935e-01	 3
-9.181659e-01	 -3.634935e-01	 1.500000e+00
-9.181659e-01	 3.634935e-01	 1.500000e+00
-9.065436e-01	 -3.588923e-01	 1.125000e+00
-9.065436e-01	 -3.588923e-01	 2.625000e+00
-9.065436e-01	 -3.588923e-01	 0
-9.065436e-01	 -3.588923e-01	 3.750000e-01
-9.065436e-01	 -3.588923e-01	 1.500000e+00
-9.065436e-01	 -3.588923e-01	 3
-9.065436e-01	 3.588923e-01	 2.625000e+00
-9.065436e-01	 3.588923e-01	 1.125000e+00
-9.065436e-01	 3.588923e-01	 0
-9.065436e-01	 3.588923e-01	 3.750000e-01
-9.065436e-01	 3.588923e-01	 3
-9.065436e-01	 -3.588923e-01	 7.500000e-01
-9.065436e-01	 -3.588923e-01	 1.875000e+00
-9.065436e-01	 3.588923e-01	 1.875000e+00
-9.065436e-01	 3.588923e-01	 1.500000e+00
-9.065436e-01	 -3.588923e-01	 2.250000e+00
-9.065436e-01	 3.588923e-01	 7.500000e-01
-9.065436e-01	 3.588923e-01	 2.250000e+00
-8.949212e-01	 3.542912e-01	 1.500000e+00
-8.949212e-01	 -3.542912e-01	 1.500000e+00
-8.949212e-01	 -3.542912e-01	 0
-8.949212e-01	 -3.542912e-01	 3.000000e+00
-8.949212e-01	 3.542912e-01	 0
-8.949212e-01	 3.542912e-01	 3.000000e+00
-8.949212e-01	 -3.542912e-01	 2.250000e+00
-8.949212e-01	 -3.542912e-01	 7.500000e-01
-8.949212e-01	 3.542912e-01	 2.250000e+00
-8.949212e-01	 3.542912e-01	 7.500000e-01
-8.832989e-01	 -3.496900e-01	 1.125000e+00
-8.832989e-01	 -3.496900e-01	 1.875000e+00
-8.832989e-01	 -3.496900e-01	 2.625000e+00
-8.832989e-01	 -3.496900e-01	 2.250000e+00
-8.832989e-01	 3.496900e-01	 1.125000e+00
-8.832989e-01	 -3.496900e-01	 0
-8.832989e-01	 -3.496900e-01	 3.000000e+00
-8.832989e-01	 -3.496900e-01	 3.750000e-01
-8.832989e-01	 -3.496900e-01	 7.500000e-01
-8.832989e-01	 3.496900e-01	 3.750000e-01
-8.832989e-01	 3.496900e-01	 7.500000e-01
-8.832989e-01	 3.496900e-01	 2.250000e+00
-8.832989e-01	 3.496900e-01	 2.625000e+00
-8.832989e-01	 3.496900e-01	 0
-8.832989e-01	 3.496900e-01	 1.875000e+00
-8.832989e-01	 3.496900e-01	 3.000000e+00
-8.832989e-01	 -3.496900e-01	 1.500000e+00
-8.832989e-01	 3.496900e-01	 1.500000e+00
-8.369955e-01	 -5.472098e-01	 0
-8.369955e-01	 -5.472098e-01	 7.500000e-01
-8.369955e-01	 -5.472098e-01	 1.500000e+00
-8.369955e-01	 -5.472098e-01	 2.250000e+00
-8.369955e-01	 -5.472098e-01	 3
-8.369955e-01	 5.472098e-01	 0
-8.369955e-01	 5.472098e-01	 7.500000e-01
-8.369955e-01	 5.472098e-01	 1.500000e+00
-8.369955e-01	 5.472098e-01	 2.250000e+00
-8.369955e-01	 5.472098e-01	 3
-8.160706e-01	 -5.335295e-01	 7.500000e-01
-8.160706e-01	 5.335295e-01	 7.500000e-01
-8.160706e-01	 -5.335295e-01	 1.500000e+00
-8.160706e-01	 -5.335295e-01	 2.250000e+00
-8.160706e-01	 5.335295e-01	 1.500000e+00
-8.160706e-01	 5.335295e-01	 2.250000e+00
-8.160706e-01	 -5.335295e-01	 0
-8.160706e-01	 -5.335295e-01	 3.000000e+00
-8.160706e-01	 5.335295e-01	 0
-8.160706e-01	 5.335295e-01	 3.000000e+00
-7.951457e-01	 -5.198493e-01	 7.500000e-01
-7.951457e-01	 5.198493e-01	 7.500000e-01
-7.951457e-01	 -5.198493e-01	 0
-7.951457e-01	 -5.198493e-01	 1.500000e+00
-7.951457e-01	 -5.198493e-01	 2.250000e+00
-7.951457e-01	 -5.198493e-01	 3
-7.951457e-01	 5.198493e-01	 0
-7.951457e-01	 5.198493e-01	 1.500000e+00
-7.951457e-01	 5.198493e-01	 2.250000e+00
-7.951457e-01	 5.198493e-01	 3
-7.071068e-01	 -7.071068e-01	 0
-7.071068e-01	 -7.071068e-01	 3.750000e-01
-7.071068e-01	 -7.071068e-01	 7.500000e-01
-7.071068e-01	 -7.071068e-01	 1.125000e+00
-7.071068e-01	 -7.071068e-01	 1.500000e+00
-7.071068e-01	 -7.071068e-01	 1.875000e+00
-7.071068e-01	 -7.071068e-01	 2.250000e+00
-7.071068e-01	 -7.071068e-01	 2.625000e+00
-7.071068e-01	 -7.071068e-01	 3.000000e+00
-7.071068e-01	 7.071068e-01	 0
-7.071068e-01	 7.071068e-01	 3.750000e-01
-7.071068e-01	 7.071068e-01	 7.500000e-01
-7.071068e-01	 7.071068e-01	 1.125000e+00
-7.071068e-01	 7.071068e-01	 1.500000e+00
-7.071068e-01	 7.071068e-01	 1.875000e+00
-7.071068e-01	 7.071068e-01	 2.250000e+00
-7.071068e-01	 7.071068e-01	 2.625000e+00
-7.071068e-01	 7.071068e-01	 3.000000e+00
-6.982679e-01	 -6.982679e-01	 7.500000e-01
-6.982679e-01	 6.982679e-01	 7.500000e-01
-6.982679e-01	 -6.982679e-01	 0
-6.982679e-01	 -6.982679e-01	 2.250000e+00
-6.982679e-01	 -6.982679e-01	 3.000000e+00
-6.982679e-01	 6.982679e-01	 0
-6.982679e-01	 6.982679e-01	 2.250000e+00
-6.982679e-01	 6.982679e-01	 3.000000e+00
-6.982679e-01	 -6.982679e-01	 1.500000e+00
-6.982679e-01	 6.982679e-01	 1.500000e+00
-6.894291e-01	 -6.894291e-01	 3.750000e-01
-6.894291e-01	 -6.894291e-01	 2.625000e+00
-6.894291e-01	 -6.894291e-01	 0
-6.894291e-01	 -6.894291e-01	 1.500000e+00
-6.894291e-01	 -6.894291e-01	 2.250000e+00
-6.894291e-01	 -6.894291e-01	 3.000000e+00
-6.894291e-01	 6.894291e-01	 3.750000e-01
-6.894291e-01	 6.894291e-01	 2.625000e+00
-6.894291e-01	 -6.894291e-01	 1.875000e+00
-6.894291e-01	 6.894291e-01	 1.875000e+00
-6.894291e-01	 -6.894291e-01	 7.500000e-01
-6.894291e-01	 -6.894291e-01	 1.125000e+00
-6.894291e-01	 6.894291e-01	 0
-6.894291e-01	 6.894291e-01	 1.500000e+00
-6.894291e-01	 6.894291e-01	 2.250000e+00
-6.894291e-01	 6.894291e-01	 3.000000e+00
-6.894291e-01	 6.894291e-01	 7.500000e-01
-6.894291e-01	 6.894291e-01	 1.125000e+00
-6.805903e-01	 6.805903e-01	 7.500000e-01
-6.805903e-01	 -6.805903e-01	 7.500000e-01
-6.805903e-01	 -6.805903e-01	 0
-6.805903e-01	 -6.805903e-01	 1.500000e+00
-6.805903e-01	 -6.805903e-01	 3.000000e+00
-6.805903e-01	 6.805903e-01	 0
-6.805903e-01	 6.805903e-01	 1.500000e+00
-6.805903e-01	 6.805903e-01	 3.000000e+00
-6.805903e-01	 6.805903e-01	 2.250000e+00
-6.805903e-01	 -6.805903e-01	 2.250000e+00
-6.717514e-01	 -6.717514e-01	 2.625000e+00
-6.717514e-01	 6.717514e-01	 2.625000e+00
-6.717514e-01	 -6.717514e-01	 0
-6.717514e-01	 -6.717514e-01	 3.750000e-01
-6.717514e-01	 -6.717514e-01	 7.500000e-01
-6.717514e-01	 -6.717514e-01	 1.125000e+00
-6.717514e-01	 -6.717514e-01	 1.875000e+00
-6.717514e-01	 -6.717514e-01	 3.000000e+00
-6.717514e-01	 -6.717514e-01	 2.250000e+00
-6.717514e-01	 6.717514e-01	 1.500000e+00
-6.717514e-01	 6.717514e-01	 0
-6.717514e-01	 6.717514e-01	 3.750000e-01
-6.717514e-01	 6.717514e-01	 7.500000e-01
-6.717514e-01	 6.717514e-01	 1.125000e+00
-6.717514e-01	 6.717514e-01	 1.875000e+00
-6.717514e-01	 6.717514e-01	 3.000000e+00
-6.717514e-01	 -6.717514e-01	 1.500000e+00
-6.717514e-01	 6.717514e-01	 2.250000e+00
-5.472098e-01	 -8.369955e-01	 0
-5.472098e-01	 -8.369955e-01	 7.500000e-01
-5.472098e-01	 -8.369955e-01	 1.500000e+00
-5.472098e-01	 -8.369955e-01	 2.250000e+00
-5.472098e-01	 -8.369955e-01	 3
-5.472098e-01	 8.369955e-01	 0
-5.472098e-01	 8.369955e-01	 7.500000e-01
-5.472098e-01	 8.369955e-01	 1.500000e+00
-5.472098e-01	 8.369955e-01	 2.250000e+00
-5.472098e-01	 8.369955e-01	 3
-5.335295e-01	 -8.160706e-01	 1.500000e+00
-5.335295e-01	 -8.160706e-01	 2.250000e+00
-5.335295e-01	 8.160706e-01	 0
-5.335295e-01	 8.160706e-01	 3.000000e+00
[...]
POINT_DATA 832
VECTORS displacement float
0	 0	 -7.070950e-03
-9.552034e-03	 1.502638e-02	 -6.491903e-03
-1.759243e-02	 2.778491e-02	 -4.999917e-03
-2.306065e-02	 3.627689e-02	 -2.689034e-03
-2.487945e-02	 3.929379e-02	 2.297919e-12
-2.306065e-02	 3.627689e-02	 2.689034e-03
-1.759243e-02	 2.778491e-02	 4.999917e-03
-9.552034e-03	 1.502638e-02	 6.491903e-03
0	 0	 7.070950e-03
0	 0	 -6.728245e-03
-2.492628e-02	 3.932411e-02	 2.113835e-12
0	 0	 6.728245e-03
-1.762554e-02	 2.780634e-02	 4.757588e-03
-1.762554e-02	 2.780634e-02	 -4.757588e-03
-1.728815e-02	 2.768289e-02	 -3.407638e-03
0	 0	 -4.819128e-03
-2.444913e-02	 3.914952e-02	 -1.664122e-12
0	 0	 4.819128e-03
-1.783945e-02	 2.798528e-02	 6.432357e-03
0	 0	 -9.096726e-03
-2.522879e-02	 3.957716e-02	 6.405123e-12
0	 0	 9.096726e-03
-1.783945e-02	 2.798528e-02	 -6.432357e-03
-1.728815e-02	 2.768289e-02	 3.407638e-03
-1.765740e-02	 2.782836e-02	 -4.514992e-03
-2.314284e-02	 3.633650e-02	 -2.445303e-03
0	 0	 -6.385163e-03
-9.586080e-03	 1.505107e-02	 -5.903484e-03
-2.314284e-02	 3.633650e-02	 2.445303e-03
-9.586079e-03	 1.505107e-02	 5.903484e-03
0	 0	 6.385163e-03
-2.497134e-02	 3.935525e-02	 1.928843e-12
-1.765740e-02	 2.782836e-02	 4.514992e-03
-2.501562e-02	 3.938725e-02	 1.744240e-12
-1.768872e-02	 2.785099e-02	 4.272082e-03
0	 0	 -6.041636e-03
-1.768872e-02	 2.785099e-02	 -4.272082e-03
0	 0	 6.041636e-03
0	 0	 -4.356006e-03
0	 0	 4.356006e-03
-2.452036e-02	 3.919565e-02	 -4.422628e-13
0	 0	 -8.212913e-03
0	 0	 8.212913e-03
-2.533596e-02	 3.964084e-02	 4.421801e-12
-1.791523e-02	 2.803030e-02	 -5.807407e-03
-1.733851e-02	 2.771551e-02	 -3.080161e-03
-1.733851e-02	 2.771551e-02	 3.080161e-03
-1.791523e-02	 2.803030e-02	 5.807407e-03
0	 0	 -5.697295e-03
-9.617443e-03	 1.507716e-02	 -5.312873e-03
-2.321856e-02	 3.639948e-02	 -2.200664e-03
-2.505810e-02	 3.942042e-02	 1.559109e-12
-2.321856e-02	 3.639948e-02	 2.200664e-03
-1.771875e-02	 2.787445e-02	 4.028596e-03
-9.617443e-03	 1.507716e-02	 5.312873e-03
0	 0	 5.697295e-03
-1.771875e-02	 2.787445e-02	 -4.028596e-03
-2.458920e-02	 3.924651e-02	 7.842820e-13
0	 0	 -3.891574e-03
0	 0	 3.891574e-03
-1.798535e-02	 2.807663e-02	 5.180557e-03
0	 0	 -7.326413e-03
-2.543512e-02	 3.970635e-02	 2.434503e-12
0	 0	 7.326413e-03
-1.738719e-02	 2.775147e-02	 -2.751758e-03
-1.738719e-02	 2.775147e-02	 2.751758e-03
-1.798535e-02	 2.807663e-02	 -5.180557e-03
-2.218241e-02	 3.615174e-02	 -8.575225e-04
0	 0	 -2.252026e-03
-1.696933e-02	 2.769683e-02	 -1.592423e-03
-2.399826e-02	 3.916924e-02	 -5.165983e-12
-2.218241e-02	 3.615174e-02	 8.575225e-04
-1.696933e-02	 2.769683e-02	 1.592423e-03
-9.188255e-03	 1.497454e-02	 2.070242e-03
0	 0	 2.252026e-03
-9.188255e-03	 1.497454e-02	 -2.070242e-03
-9.754769e-03	 1.530680e-02	 -9.997805e-03
-1.793777e-02	 2.826383e-02	 7.701352e-03
-9.754769e-03	 1.530680e-02	 9.997805e-03
0	 0	 -1.089136e-02
-1.793777e-02	 2.826383e-02	 -7.701352e-03
-2.536784e-02	 3.997109e-02	 9.435233e-12
-2.355010e-02	 3.695389e-02	 4.141227e-03
0	 0	 1.089136e-02
-2.355010e-02	 3.695389e-02	 -4.141226e-03
-1.798192e-02	 2.829052e-02	 -7.329495e-03
0	 0	 -2.141216e-03
-1.698674e-02	 2.771224e-02	 -1.514068e-03
-1.698674e-02	 2.771224e-02	 1.514069e-03
0	 0	 2.141216e-03
0	 0	 -1.036547e-02
-1.798192e-02	 2.829052e-02	 7.329495e-03
0	 0	 1.036547e-02
-2.402288e-02	 3.919103e-02	 -3.852032e-12
-2.543028e-02	 4.000883e-02	 7.808752e-12
-2.222835e-02	 3.619688e-02	 -7.787042e-04
-9.207286e-03	 1.499324e-02	 1.879958e-03
0	 0	 -2.030282e-03
-9.207286e-03	 1.499324e-02	 -1.879958e-03
-2.404749e-02	 3.921412e-02	 -2.541781e-12
0	 0	 2.030282e-03
-9.799493e-03	 1.533587e-02	 9.094843e-03
-2.365807e-02	 3.702408e-02	 -3.767207e-03
0	 0	 -9.838999e-03
-9.799493e-03	 1.533588e-02	 -9.094843e-03
0	 0	 9.838999e-03
-1.700414e-02	 2.772857e-02	 -1.435626e-03
-2.222835e-02	 3.619688e-02	 7.787042e-04
-2.365807e-02	 3.702408e-02	 3.767207e-03
-2.548989e-02	 4.004636e-02	 6.186858e-12
-1.700414e-02	 2.772857e-02	 1.435626e-03
-1.802407e-02	 2.831705e-02	 -6.957223e-03
-1.802407e-02	 2.831705e-02	 6.957223e-03
-2.554816e-02	 4.008398e-02	 4.563095e-12
-2.407211e-02	 3.923811e-02	 -1.229663e-12
0	 0	 -1.919158e-03
0	 0	 1.919158e-03
0	 0	 -9.311897e-03
0	 0	 9.311897e-03
-1.702155e-02	 2.774554e-02	 1.357050e-03
-1.702155e-02	 2.774554e-02	 -1.357050e-03
-1.806528e-02	 2.834365e-02	 6.584505e-03
-1.806528e-02	 2.834365e-02	 -6.584505e-03
-2.227381e-02	 3.624630e-02	 -6.995543e-04
-2.227381e-02	 3.624630e-02	 6.995543e-04
-9.226116e-03	 1.501371e-02	 1.688873e-03
-1.703898e-02	 2.776348e-02	 1.278286e-03
-2.375585e-02	 3.709290e-02	 -3.391824e-03
0	 0	 -1.807770e-03
0	 0	 1.807770e-03
-9.226116e-03	 1.501371e-02	 -1.688873e-03
-1.703898e-02	 2.776348e-02	 -1.278286e-03
-9.839996e-03	 1.536438e-02	 -8.188588e-03
-1.810446e-02	 2.837002e-02	 -6.210902e-03
-1.810446e-02	 2.837002e-02	 6.210902e-03
-9.839996e-03	 1.536438e-02	 8.188588e-03
0	 0	 -8.783542e-03
-2.375585e-02	 3.709290e-02	 3.391824e-03
0	 0	 8.783542e-03
-2.409676e-02	 3.926348e-02	 9.006446e-14
-2.560357e-02	 4.012127e-02	 2.929479e-12
0	 0	 5.098239e-04
-1.667528e-02	 2.782075e-02	 3.604999e-04
-2.358241e-02	 3.934448e-02	 -7.659145e-12
-1.667528e-02	 2.782075e-02	 -3.604999e-04
0	 0	 -5.098239e-04
0	 0	 -1.234591e-02
-1.792302e-02	 2.856330e-02	 -8.729874e-03
-2.534697e-02	 4.039460e-02	 1.069408e-11
-1.792302e-02	 2.856330e-02	 8.729874e-03
0	 0	 1.234591e-02
-1.669335e-02	 2.785690e-02	 3.245425e-04
-1.800940e-02	 2.863596e-02	 -7.885459e-03
-2.360797e-02	 3.939561e-02	 -4.237675e-12
-1.669335e-02	 2.785690e-02	 -3.245425e-04
-2.546914e-02	 4.049736e-02	 7.015583e-12
-1.800940e-02	 2.863596e-02	 7.885459e-03
0	 0	 4.589724e-04
0	 0	 -4.589723e-04
0	 0	 -1.115172e-02
0	 0	 1.115172e-02
-1.671342e-02	 2.789552e-02	 2.884482e-04
-1.808986e-02	 2.870632e-02	 -7.038502e-03
0	 0	 4.079273e-04
-2.363635e-02	 3.945022e-02	 -8.088649e-13
-1.671342e-02	 2.789552e-02	 -2.884482e-04
0	 0	 -4.079273e-04
0	 0	 -9.953945e-03
-2.558292e-02	 4.059686e-02	 3.329951e-12
-1.808986e-02	 2.870632e-02	 7.038502e-03
0	 0	 9.953945e-03
0	 0	 3.303770e-03
-8.891275e-03	 1.518782e-02	 3.033692e-03
-1.646356e-02	 2.806068e-02	 2.336118e-03
-2.146544e-02	 3.666665e-02	 1.256596e-03
-2.328299e-02	 3.968379e-02	 -7.400346e-12
-2.146544e-02	 3.666665e-02	 -1.256596e-03
-1.646356e-02	 2.806068e-02	 -2.336118e-03
-8.891275e-03	 1.518782e-02	 -3.033692e-03
0	 0	 -3.303770e-03
0	 0	 -1.329020e-02
-9.671807e-03	 1.565756e-02	 -1.220375e-02
-1.779201e-02	 2.886016e-02	 -9.397592e-03
-2.334981e-02	 3.780068e-02	 -5.054958e-03
-2.516171e-02	 4.081443e-02	 8.595761e-12
-2.334981e-02	 3.780068e-02	 5.054958e-03
-1.779201e-02	 2.886016e-02	 9.397592e-03
-9.671807e-03	 1.565756e-02	 1.220375e-02
0	 0	 1.329020e-02
-1.646665e-02	 2.808553e-02	 2.223289e-03
-1.783232e-02	 2.890741e-02	 -8.943711e-03
0	 0	 3.144206e-03
-1.646665e-02	 2.808553e-02	 -2.223289e-03
0	 0	 -3.144206e-03
0	 0	 -1.264832e-02
-1.783232e-02	 2.890741e-02	 8.943711e-03
0	 0	 1.264832e-02
-2.328735e-02	 3.971894e-02	 -5.694483e-12
-2.521871e-02	 4.088125e-02	 7.066941e-12
-8.896512e-03	 1.521546e-02	 2.759720e-03
-8.896512e-03	 1.521546e-02	 -2.759720e-03
0	 0	 2.984460e-03
-2.329308e-02	 3.975435e-02	 -3.995723e-12
-1.647069e-02	 2.811057e-02	 -2.110332e-03
0	 0	 -2.984460e-03
-9.712781e-03	 1.570670e-02	 -1.110163e-02
-9.712781e-03	 1.570670e-02	 1.110163e-02
-2.147808e-02	 3.673338e-02	 -1.143114e-03
-2.344873e-02	 3.791933e-02	 4.598446e-03
-1.647069e-02	 2.811057e-02	 2.110332e-03
-2.147808e-02	 3.673338e-02	 1.143114e-03
0	 0	 -1.200570e-02
-2.527331e-02	 4.094607e-02	 5.543733e-12
-1.787093e-02	 2.895324e-02	 8.489312e-03
0	 0	 1.200570e-02
-1.787093e-02	 2.895324e-02	 -8.489312e-03
-2.344873e-02	 3.791933e-02	 -4.598446e-03
-1.790865e-02	 2.899841e-02	 -8.034353e-03
-1.647536e-02	 2.813584e-02	 1.997235e-03
0	 0	 2.824517e-03
-2.329968e-02	 3.979009e-02	 -2.293908e-12
0	 0	 -2.824517e-03
0	 0	 -1.136229e-02
-2.532665e-02	 4.100994e-02	 4.018003e-12
0	 0	 1.136229e-02
-1.790865e-02	 2.899841e-02	 8.034353e-03
-1.647536e-02	 2.813584e-02	 -1.997235e-03
-8.903713e-03	 1.524334e-02	 -2.484734e-03
-9.750003e-03	 1.575264e-02	 9.995435e-03
0	 0	 2.664194e-03
-8.903713e-03	 1.524334e-02	 2.484734e-03
-1.648105e-02	 2.816136e-02	 1.883870e-03
-2.149547e-02	 3.680067e-02	 1.029211e-03
-2.149547e-02	 3.680067e-02	 -1.029211e-03
0	 0	 -2.664194e-03
-1.648105e-02	 2.816136e-02	 -1.883870e-03
-2.537758e-02	 4.107184e-02	 2.481652e-12
0	 0	 -1.071736e-02
-9.750004e-03	 1.575264e-02	 -9.995435e-03
-1.794466e-02	 2.904217e-02	 -7.578315e-03
-2.353859e-02	 3.803025e-02	 -4.140245e-03
-2.353859e-02	 3.803025e-02	 4.140245e-03
0	 0	 1.071736e-02
-2.330772e-02	 3.982618e-02	 -5.810149e-13
-1.794466e-02	 2.904217e-02	 7.578315e-03
0	 0	 5.965365e-03
-1.634933e-02	 2.836971e-02	 4.218150e-03
-2.312145e-02	 4.012083e-02	 -4.632678e-12
-1.634933e-02	 2.836971e-02	 -4.218150e-03
0	 0	 -5.965365e-03
0	 0	 -1.370208e-02
-1.758320e-02	 2.912061e-02	 -9.688835e-03
-2.486639e-02	 4.118276e-02	 4.818331e-12
-1.758319e-02	 2.912061e-02	 9.688835e-03
0	 0	 1.370208e-02
-2.312486e-02	 4.021450e-02	 -2.354461e-12
-1.635175e-02	 2.843594e-02	 -3.811372e-03
0	 0	 -1.237754e-02
0	 0	 1.237754e-02
-2.495559e-02	 4.133457e-02	 3.175101e-12
-1.764627e-02	 2.922796e-02	 8.752240e-03
-1.635175e-02	 2.843594e-02	 3.811372e-03
0	 0	 5.390094e-03
0	 0	 -5.390094e-03
-1.764627e-02	 2.922796e-02	 -8.752240e-03
-1.770543e-02	 2.932964e-02	 -7.812839e-03
-1.635817e-02	 2.850129e-02	 3.403401e-03
0	 0	 4.813136e-03
-2.313394e-02	 4.030691e-02	 -7.422643e-14
-1.635817e-02	 2.850129e-02	 -3.403401e-03
0	 0	 -4.813136e-03
0	 0	 -1.104902e-02
-2.503926e-02	 4.147838e-02	 1.528408e-12
-1.770543e-02	 2.932964e-02	 7.812839e-03
0	 0	 1.104902e-02
-2.133144e-02	 3.758421e-02	 3.165006e-03
-2.266433e-02	 3.840729e-02	 -5.141174e-03
0	 0	 8.320242e-03
-1.636779e-02	 2.871032e-02	 5.883300e-03
-2.314755e-02	 4.060252e-02	 1.176430e-12
-2.133144e-02	 3.758421e-02	 -3.165006e-03
0	 0	 -8.320242e-03
0	 0	 -1.351948e-02
-1.730994e-02	 2.929313e-02	 -9.559719e-03
-2.447995e-02	 4.142675e-02	 -9.397691e-14
-2.266433e-02	 3.840729e-02	 5.141174e-03
-1.730994e-02	 2.929313e-02	 9.559719e-03
-9.387871e-03	 1.590882e-02	 1.241189e-02
0	 0	 1.351948e-02
-8.835770e-03	 1.556789e-02	 7.641000e-03
-1.636779e-02	 2.871032e-02	 -5.883299e-03
-8.835770e-03	 1.556789e-02	 -7.641000e-03
-9.387871e-03	 1.590882e-02	 -1.241189e-02
-2.315221e-02	 4.066348e-02	 1.227490e-12
-2.451112e-02	 4.151046e-02	 1.611645e-14
-1.637109e-02	 2.875342e-02	 5.597568e-03
0	 0	 7.916157e-03
-1.637109e-02	 2.875342e-02	 -5.597568e-03
0	 0	 -7.916157e-03
0	 0	 -1.286560e-02
-1.733198e-02	 2.935233e-02	 -9.097355e-03
-1.733198e-02	 2.935233e-02	 9.097355e-03
0	 0	 1.286560e-02
-1.637550e-02	 2.879545e-02	 -5.311518e-03
-1.735336e-02	 2.940925e-02	 8.634475e-03
-2.271984e-02	 3.855384e-02	 -4.676118e-03
-9.410866e-03	 1.596952e-02	 1.128915e-02
0	 0	 7.511621e-03
-8.841521e-03	 1.561313e-02	 6.947151e-03
0	 0	 -7.511621e-03
-2.315846e-02	 4.072291e-02	 1.277272e-12
0	 0	 -1.221099e-02
-9.410866e-03	 1.596952e-02	 -1.128915e-02
-2.454136e-02	 4.159096e-02	 1.247192e-13
0	 0	 1.221099e-02
-2.134532e-02	 3.769342e-02	 2.877604e-03
-2.134532e-02	 3.769342e-02	 -2.877604e-03
-1.637550e-02	 2.879545e-02	 5.311518e-03
-1.735336e-02	 2.940925e-02	 -8.634475e-03
-2.271984e-02	 3.855384e-02	 4.676118e-03
-8.841521e-03	 1.561313e-02	 -6.947151e-03
-2.316568e-02	 4.078165e-02	 1.327108e-12
-1.638061e-02	 2.883698e-02	 -5.025080e-03
-1.737447e-02	 2.946511e-02	 8.171019e-03
0	 0	 -1.155557e-02
0	 0	 1.155557e-02
-2.457121e-02	 4.166996e-02	 2.351491e-13
0	 0	 7.106537e-03
0	 0	 -7.106537e-03
-1.638061e-02	 2.883698e-02	 5.025080e-03
-1.737447e-02	 2.946511e-02	 -8.171019e-03
-2.136479e-02	 3.779669e-02	 2.589105e-03
0	 0	 6.700488e-03
-2.136479e-02	 3.779669e-02	 -2.589105e-03
0	 0	 -6.700488e-03
-2.317463e-02	 4.083892e-02	 1.377859e-12
0	 0	 -1.089858e-02
0	 0	 1.089858e-02
-2.277154e-02	 3.868859e-02	 -4.209342e-03
-2.277154e-02	 3.868859e-02	 4.209342e-03
-9.432279e-03	 1.602534e-02	 1.016225e-02
-8.849584e-03	 1.565590e-02	 6.250651e-03
-1.638694e-02	 2.887748e-02	 4.737961e-03
-1.638694e-02	 2.887748e-02	 -4.737961e-03
-8.849584e-03	 1.565590e-02	 -6.250651e-03
-2.459997e-02	 4.174573e-02	 3.459498e-13
-9.432279e-03	 1.602534e-02	 -1.016225e-02
-1.739480e-02	 2.951869e-02	 7.706462e-03
-1.739480e-02	 2.951869e-02	 -7.706462e-03
-1.649962e-02	 2.901902e-02	 7.265168e-03
-1.700208e-02	 2.935080e-02	 -9.085477e-03
0	 0	 1.027450e-02
-2.333399e-02	 4.103910e-02	 6.778308e-12
0	 0	 -1.027450e-02
0	 0	 -1.284880e-02
-2.404457e-02	 4.150830e-02	 -4.615450e-12
0	 0	 1.284880e-02
-1.649962e-02	 2.901902e-02	 -7.265168e-03
-1.700208e-02	 2.935080e-02	 9.085477e-03
-1.651268e-02	 2.911618e-02	 6.563379e-03
0	 0	 9.282020e-03
0	 0	 -9.282020e-03
-1.703576e-02	 2.946326e-02	 -8.204665e-03
-1.703576e-02	 2.946326e-02	 8.204665e-03
0	 0	 -1.160315e-02
0	 0	 1.160315e-02
-1.651268e-02	 2.911618e-02	 -6.563379e-03
-2.409220e-02	 4.166734e-02	 -2.743630e-12
-2.335245e-02	 4.117650e-02	 4.721632e-12
-2.413939e-02	 4.181604e-02	 -8.725618e-13
0	 0	 8.286633e-03
-2.337529e-02	 4.130695e-02	 2.662497e-12
0	 0	 -8.286633e-03
0	 0	 -1.035376e-02
0	 0	 1.035376e-02
-1.652883e-02	 2.920843e-02	 -5.859534e-03
-1.652883e-02	 2.920843e-02	 5.859534e-03
-1.706913e-02	 2.956841e-02	 -7.321211e-03
-1.706913e-02	 2.956841e-02	 7.321211e-03
0	 0	 1.174946e-02
-9.043039e-03	 1.587215e-02	 1.078728e-02
-1.672126e-02	 2.923249e-02	 8.308120e-03
-2.183183e-02	 3.831877e-02	 4.468239e-03
-2.364743e-02	 4.134098e-02	 1.058298e-11
-2.183183e-02	 3.831877e-02	 -4.468239e-03
-1.672126e-02	 2.923249e-02	 -8.308120e-03
-9.043039e-03	 1.587215e-02	 -1.078728e-02
0	 0	 -1.174946e-02
0	 0	 1.118000e-02
-2.366567e-02	 4.141879e-02	 8.735545e-12
0	 0	 -1.118000e-02
-1.673416e-02	 2.928751e-02	 -7.905454e-03
-1.673416e-02	 2.928751e-02	 7.905454e-03
-1.674741e-02	 2.934045e-02	 7.502344e-03
-2.186770e-02	 3.845535e-02	 4.063242e-03
0	 0	 1.060992e-02
-9.057898e-03	 1.592873e-02	 9.809535e-03
-2.186770e-02	 3.845535e-02	 -4.063242e-03
-9.057898e-03	 1.592873e-02	 -9.809535e-03
0	 0	 -1.060992e-02
-2.368442e-02	 4.149367e-02	 6.898879e-12
-1.674741e-02	 2.934045e-02	 -7.502344e-03
-2.370367e-02	 4.156726e-02	 5.058239e-12
-1.676103e-02	 2.939249e-02	 -7.098713e-03
0	 0	 1.003910e-02
-1.676103e-02	 2.939249e-02	 7.098713e-03
0	 0	 -1.003910e-02
0	 0	 9.466920e-03
-9.073597e-03	 1.598084e-02	 8.828146e-03
-2.190560e-02	 3.858117e-02	 3.656738e-03
-2.372364e-02	 4.163784e-02	 3.201937e-12
-2.190560e-02	 3.858117e-02	 -3.656738e-03
-1.677514e-02	 2.944240e-02	 -6.694123e-03
-9.073597e-03	 1.598084e-02	 -8.828146e-03
0	 0	 -9.466920e-03
-1.677514e-02	 2.944240e-02	 6.694123e-03
-1.677514e-02	 2.944240e-02	 -6.694123e-03
0	 0	 -9.466920e-03
-9.073597e-03	 1.598084e-02	 -8.828146e-03
-2.190560e-02	 3.858117e-02	 -3.656738e-03
-2.372364e-02	 4.163784e-02	 -1.385026e-12
-2.190560e-02	 3.858117e-02	 3.656738e-03
-1.677514e-02	 2.944240e-02	 6.694123e-03
-9.073597e-03	 1.598084e-02	 8.828146e-03
0	 0	 9.466920e-03
0	 0	 -1.003910e-02
-1.676103e-02	 2.939249e-02	 -7.098713e-03
0	 0	 1.003910e-02
-2.370367e-02	 4.156726e-02	 -2.755701e-12
-1.676103e-02	 2.939249e-02	 7.098713e-03
-2.368442e-02	 4.149366e-02	 -4.117206e-12
-1.674741e-02	 2.934045e-02	 7.502344e-03
0	 0	 -1.060992e-02
-9.057898e-03	 1.592873e-02	 -9.809535e-03
-2.186770e-02	 3.845535e-02	 4.063242e-03
-9.057898e-03	 1.592873e-02	 9.809535e-03
0	 0	 1.060992e-02
-1.674741e-02	 2.934045e-02	 -7.502344e-03
-2.186770e-02	 3.845535e-02	 -4.063242e-03
-1.673416e-02	 2.928751e-02	 -7.905454e-03
-1.673416e-02	 2.928751e-02	 7.905454e-03
0	 0	 -1.118000e-02
-2.366567e-02	 4.141879e-02	 -5.474674e-12
0	 0	 1.118000e-02
0	 0	 -1.174946e-02
-9.043039e-03	 1.587215e-02	 -1.078728e-02
-1.672126e-02	 2.923249e-02	 -8.308120e-03
-2.183183e-02	 3.831877e-02	 -4.468239e-03
-2.364743e-02	 4.134098e-02	 -6.840325e-12
-2.183183e-02	 3.831877e-02	 4.468239e-03
-1.672126e-02	 2.923249e-02	 8.308120e-03
-9.043039e-03	 1.587215e-02	 1.078728e-02
0	 0	 1.174946e-02
-1.706913e-02	 2.956841e-02	 7.321211e-03
-1.706913e-02	 2.956841e-02	 -7.321211e-03
-1.652883e-02	 2.920843e-02	 -5.859534e-03
-1.652883e-02	 2.920843e-02	 5.859534e-03
0	 0	 1.035376e-02
0	 0	 -1.035376e-02
0	 0	 -8.286633e-03
-2.337529e-02	 4.130695e-02	 -1.868220e-12
0	 0	 8.286633e-03
-2.413939e-02	 4.181604e-02	 3.936954e-12
-2.335245e-02	 4.117650e-02	 -4.636938e-12
-2.409220e-02	 4.166734e-02	 8.134508e-12
-1.651268e-02	 2.911618e-02	 6.563379e-03
0	 0	 1.160315e-02
0	 0	 -1.160315e-02
-1.703576e-02	 2.946326e-02	 8.204665e-03
-1.703576e-02	 2.946326e-02	 -8.204665e-03
0	 0	 -9.282020e-03
0	 0	 9.282020e-03
-1.651268e-02	 2.911618e-02	 -6.563379e-03
-1.700208e-02	 2.935080e-02	 -9.085477e-03
-1.649962e-02	 2.901902e-02	 7.265168e-03
0	 0	 1.284880e-02
-2.404457e-02	 4.150830e-02	 1.232756e-11
0	 0	 -1.284880e-02
0	 0	 -1.027450e-02
-2.333399e-02	 4.103910e-02	 -7.403346e-12
0	 0	 1.027450e-02
-1.700208e-02	 2.935080e-02	 9.085477e-03
-1.649962e-02	 2.901902e-02	 -7.265168e-03
-1.739480e-02	 2.951869e-02	 7.706462e-03
-1.739480e-02	 2.951869e-02	 -7.706462e-03
-9.432279e-03	 1.602534e-02	 1.016225e-02
-2.459997e-02	 4.174573e-02	 3.350679e-12
-8.849584e-03	 1.565590e-02	 -6.250651e-03
-1.638694e-02	 2.887747e-02	 -4.737961e-03
-1.638694e-02	 2.887747e-02	 4.737961e-03
-8.849584e-03	 1.565590e-02	 6.250651e-03
-2.277154e-02	 3.868859e-02	 4.209342e-03
-2.277154e-02	 3.868859e-02	 -4.209342e-03
-9.432279e-03	 1.602534e-02	 -1.016225e-02
0	 0	 1.089858e-02
0	 0	 -1.089858e-02
-2.317463e-02	 4.083892e-02	 -9.864432e-13
0	 0	 -6.700488e-03
-2.136479e-02	 3.779669e-02	 2.589105e-03
0	 0	 6.700488e-03
-2.136479e-02	 3.779669e-02	 -2.589105e-03
-1.737447e-02	 2.946511e-02	 8.171019e-03
-1.638061e-02	 2.883698e-02	 -5.025080e-03
0	 0	 -7.106537e-03
0	 0	 7.106537e-03
-2.457121e-02	 4.166996e-02	 4.945001e-12
0	 0	 1.155557e-02
0	 0	 -1.155557e-02
-1.737447e-02	 2.946511e-02	 -8.171019e-03
-1.638061e-02	 2.883698e-02	 5.025080e-03
-2.316568e-02	 4.078165e-02	 -1.920647e-12
-8.841521e-03	 1.561313e-02	 6.947151e-03
-1.735336e-02	 2.940925e-02	 8.634475e-03
-2.271984e-02	 3.855384e-02	 -4.676118e-03
-1.637550e-02	 2.879545e-02	 -5.311518e-03
-2.134532e-02	 3.769342e-02	 2.877604e-03
-2.134532e-02	 3.769342e-02	 -2.877604e-03
0	 0	 1.221099e-02
-9.410866e-03	 1.596952e-02	 1.128915e-02
-2.454135e-02	 4.159096e-02	 6.525970e-12
0	 0	 -1.221099e-02
-2.315846e-02	 4.072291e-02	 -2.848726e-12
0	 0	 -7.511621e-03
-8.841521e-03	 1.561313e-02	 -6.947151e-03
0	 0	 7.511621e-03
-2.271984e-02	 3.855384e-02	 4.676118e-03
-9.410866e-03	 1.596952e-02	 -1.128915e-02
-1.735336e-02	 2.940925e-02	 -8.634475e-03
-1.637550e-02	 2.879545e-02	 5.311518e-03
0	 0	 1.286560e-02
-1.733198e-02	 2.935233e-02	 9.097355e-03
-1.733198e-02	 2.935233e-02	 -9.097355e-03
0	 0	 -1.286560e-02
0	 0	 -7.916157e-03
-1.637109e-02	 2.875342e-02	 5.597568e-03
0	 0	 7.916157e-03
-1.637109e-02	 2.875342e-02	 -5.597568e-03
-2.451112e-02	 4.151046e-02	 8.103608e-12
-2.315221e-02	 4.066348e-02	 -3.774151e-12
-9.387871e-03	 1.590882e-02	 1.241189e-02
-8.835770e-03	 1.556789e-02	 -7.641000e-03
-1.636779e-02	 2.871032e-02	 5.883299e-03
-8.835770e-03	 1.556789e-02	 7.641000e-03
0	 0	 1.351948e-02
-1.730994e-02	 2.929313e-02	 9.559719e-03
-2.447995e-02	 4.142675e-02	 9.688581e-12
-2.266433e-02	 3.840729e-02	 -5.141174e-03
-1.730994e-02	 2.929313e-02	 -9.559719e-03
-9.387871e-03	 1.590882e-02	 -1.241189e-02
0	 0	 -1.351948e-02
0	 0	 -8.320242e-03
-1.636779e-02	 2.871032e-02	 -5.883299e-03
-2.314755e-02	 4.060252e-02	 -4.704040e-12
-2.133144e-02	 3.758421e-02	 3.165006e-03
0	 0	 8.320242e-03
-2.266433e-02	 3.840729e-02	 5.141174e-03
-2.133144e-02	 3.758421e-02	 -3.165006e-03
0	 0	 1.104902e-02
-2.503926e-02	 4.147838e-02	 2.405442e-12
-1.770543e-02	 2.932964e-02	 -7.812839e-03
0	 0	 -1.104902e-02
0	 0	 -4.813136e-03
-2.313394e-02	 4.030691e-02	 -1.923109e-14