# vtk DataFile Version 3.0
Unstructured Grid Example
ASCII
DATASET UNSTRUCTURED_GRID
POINTS 832 float
-1	 0	 0
-1	 0	 3.750000e-01
-1	 0	 7.500000e-01
-1	 0	 1.125000e+00
-1	 0	 1.500000e+00
-1	 0	 1.875000e+00
-1	 0	 2.250000e+00
-1	 0	 2.625000e+00
-1	 0	 3
-9.875000e-01	 0	 0
-9.875000e-01	 0	 1.500000e+00
-9.875000e-01	 0	 3
-9.875000e-01	 0	 2.250000e+00
-9.875000e-01	 0	 7.500000e-01
-9.833054e-01	 -1.819631e-01	 7.500000e-01
-9.833054e-01	 -1.819631e-01	 0
-9.833054e-01	 -1.819631e-01	 1.500000e+00
-9.833054e-01	 -1.819631e-01	 3.000000e+00
-9.833054e-01	 1.819631e-01	 2.250000e+00
-9.833054e-01	 1.819631e-01	 0
-9.833054e-01	 1.819631e-01	 1.500000e+00
-9.833054e-01	 1.819631e-01	 3.000000e+00
-9.833054e-01	 1.819631e-01	 7.500000e-01
-9.833054e-01	 -1.819631e-01	 2.250000e+00
-9.750000e-01	 0	 7.500000e-01
-9.750000e-01	 0	 1.125000e+00
-9.750000e-01	 0	 0
-9.750000e-01	 0	 3.750000e-01
-9.750000e-01	 0	 1.875000e+00
-9.750000e-01	 0	 2.625000e+00
-9.750000e-01	 0	 3
-9.750000e-01	 0	 1.500000e+00
-9.750000e-01	 0	 2.250000e+00
-9.625000e-01	 0	 1.500000e+00
-9.625000e-01	 0	 2.250000e+00
-9.625000e-01	 0	 0
-9.625000e-01	 0	 7.500000e-01
-9.625000e-01	 0	 3
-9.587227e-01	 -1.774140e-01	 0
-9.587227e-01	 -1.774140e-01	 3.000000e+00
-9.587227e-01	 -1.774140e-01	 1.500000e+00
-9.587227e-01	 1.774140e-01	 0
-9.587227e-01	 1.774140e-01	 3.000000e+00
-9.587227e-01	 1.774140e-01	 1.500000e+00
-9.587227e-01	 1.774140e-01	 7.500000e-01
-9.587227e-01	 -1.774140e-01	 7.500000e-01
-9.587227e-01	 -1.774140e-01	 2.250000e+00
-9.587227e-01	 1.774140e-01	 2.250000e+00
-9.500000e-01	 0	 0
-9.500000e-01	 0	 3.750000e-01
-9.500000e-01	 0	 1.125000e+00
-9.500000e-01	 0	 1.500000e+00
-9.500000e-01	 0	 1.875000e+00
-9.500000e-01	 0	 2.250000e+00
-9.500000e-01	 0	 2.625000e+00
-9.500000e-01	 0	 3
-9.500000e-01	 0	 7.500000e-01
-9.341401e-01	 -1.728649e-01	 1.500000e+00
-9.341401e-01	 -1.728649e-01	 0
-9.341401e-01	 -1.728649e-01	 3.000000e+00
-9.341401e-01	 1.728649e-01	 2.250000e+00
-9.341401e-01	 1.728649e-01	 0
-9.341401e-01	 1.728649e-01	 1.500000e+00
-9.341401e-01	 1.728649e-01	 3.000000e+00
-9.341401e-01	 -1.728649e-01	 7.500000e-01
-9.341401e-01	 -1.728649e-01	 2.250000e+00
-9.341401e-01	 1.728649e-01	 7.500000e-01
-9.297883e-01	 -3.680947e-01	 1.125000e+00
-9.297883e-01	 -3.680947e-01	 0
-9.297883e-01	 -3.680947e-01	 7.500000e-01
-9.297883e-01	 -3.680947e-01	 1.500000e+00
-9.297883e-01	 -3.680947e-01	 1.875000e+00
-9.297883e-01	 -3.680947e-01	 2.250000e+00
-9.297883e-01	 -3.680947e-01	 2.625000e+00
-9.297883e-01	 -3.680947e-01	 3.000000e+00
-9.297883e-01	 -3.680947e-01	 3.750000e-01
-9.297883e-01	 3.680947e-01	 3.750000e-01
-9.297883e-01	 3.680947e-01	 2.250000e+00
-9.297883e-01	 3.680947e-01	 2.625000e+00
-9.297883e-01	 3.680947e-01	 0
-9.297883e-01	 3.680947e-01	 7.500000e-01
-9.297883e-01	 3.680947e-01	 1.500000e+00
-9.297883e-01	 3.680947e-01	 1.875000e+00
-9.297883e-01	 3.680947e-01	 3.000000e+00
-9.297883e-01	 3.680947e-01	 1.125000e+00
-9.181659e-01	 3.634935e-01	 7.500000e-01
-9.181659e-01	 -3.634935e-01	 0
-9.181659e-01	 -3.634935e-01	 7.500000e-01
-9.181659e-01	 -3.634935e-01	 2.250000e+00
-9.181659e-01	 -3.634935e-01	 3
-9.181659e-01	 3.634935e-01	 0
-9.181659e-01	 3.634935e-01	 2.250000e+00
-9.181659e-01	 3.634935e-01	 3
-9.181659e-01	 -3.634935e-01	 1.500000e+00
-9.181659e-01	 3.634935e-01	 1.500000e+00
-9.065436e-01	 -3.588923e-01	 1.125000e+00
-9.065436e-01	 -3.588923e-01	 2.625000e+00
-9.065436e-01	 -3.588923e-01	 0
-9.065436e-01	 -3.588923e-01	 3.750000e-01
-9.065436e-01	 -3.588923e-01	 1.500000e+00
-9.065436e-01	 -3.588923e-01	 3
-9.065436e-01	 3.588923e-01	 2.625000e+00
-9.065436e-01	 3.588923e-01	 1.125000e+00
-9.065436e-01	 3.588923e-01	 0
-9.065436e-01	 3.588923e-01	 3.750000e-01
-9.065436e-01	 3.588923e-01	 3
-9.065436e-01	 -3.588923e-01	 7.500000e-01
-9.065436e-01	 -3.588923e-01	 1.875000e+00
-9.065436e-01	 3.588923e-01	 1.875000e+00
-9.065436e-01	 3.588923e-01	 1.500000e+00
-9.065436e-01	 -3.588923e-01	 2.250000e+00
-9.065436e-01	 3.588923e-01	 7.500000e-01
-9.065436e-01	 3.588923e-01	 2.250000e+00
-8.949212e-01	 3.542912e-01	 1.500000e+00
-8.949212e-01	 -3.542912e-01	 1.500000e+00
-8.949212e-01	 -3.542912e-01	 0
-8.949212e-01	 -3.542912e-01	 3.000000e+00
-8.949212e-01	 3.542912e-01	 0
-8.949212e-01	 3.542912e-01	 3.000000e+00
-8.949212e-01	 -3.542912e-01	 2.250000e+00
-8.949212e-01	 -3.542912e-01	 7.500000e-01
-8.949212e-01	 3.542912e-01	 2.250000e+00
-8.949212e-01	 3.542912e-01	 7.500000e-01
-8.832989e-01	 -3.496900e-01	 1.125000e+00
-8.832989e-01	 -3.496900e-01	 1.875000e+00
-8.832989e-01	 -3.496900e-01	 2.625000e+00
-8.832989e-01	 -3.496900e-01	 2.250000e+00
-8.832989e-01	 3.496900e-01	 1.125000e+00
-8.832989e-01	 -3.496900e-01	 0
-8.832989e-01	 -3.496900e-01	 3.000000e+00
-8.832989e-01	 -3.496900e-01	 3.750000e-01
-8.832989e-01	 -3.496900e-01	 7.500000e-01
-8.832989e-01	 3.496900e-01	 3.750000e-01
-8.832989e-01	 3.496900e-01	 7.500000e-01
-8.832989e-01	 3.496900e-01	 2.250000e+00
-8.832989e-01	 3.496900e-01	 2.625000e+00
-8.832989e-01	 3.496900e-01	 0
-8.832989e-01	 3.496900e-01	 1.875000e+00
-8.832989e-01	 3.496900e-01	 3.000000e+00
-8.832989e-01	 -3.496900e-01	 1.500000e+00
-8.832989e-01	 3.496900e-01	 1.500000e+00
-8.369955e-01	 -5.472098e-01	 0
-8.369955e-01	 -5.472098e-01	 7.500000e-01
-8.369955e-01	 -5.472098e-01	 1.500000e+00
-8.369955e-01	 -5.472098e-01	 2.250000e+00
-8.369955e-01	 -5.472098e-01	 3
-8.369955e-01	 5.472098e-01	 0
-8.369955e-01	 5.472098e-01	 7.500000e-01
-8.369955e-01	 5.472098e-01	 1.500000e+00
-8.369955e-01	 5.472098e-01	 2.250000e+00
-8.369955e-01	 5.472098e-01	 3
-8.160706e-01	 -5.335295e-01	 7.500000e-01
-8.160706e-01	 5.335295e-01	 7.500000e-01
-8.160706e-01	 -5.335295e-01	 1.500000e+00
-8.160706e-01	 -5.335295e-01	 2.250000e+00
-8.160706e-01	 5.335295e-01	 1.500000e+00
-8.160706e-01	 5.335295e-01	 2.250000e+00
-8.160706e-01	 -5.335295e-01	 0
-8.160706e-01	 -5.335295e-01	 3.000000e+00
-8.160706e-01	 5.335295e-01	 0
-8.160706e-01	 5.335295e-01	 3.000000e+00
-7.951457e-01	 -5.198493e-01	 7.500000e-01
-7.951457e-01	 5.198493e-01	 7.500000e-01
-7.951457e-01	 -5.198493e-01	 0
-7.951457e-01	 -5.198493e-01	 1.500000e+00
-7.951457e-01	 -5.198493e-01	 2.250000e+00
-7.951457e-01	 -5.198493e-01	 3
-7.951457e-01	 5.198493e-01	 0
-7.951457e-01	 5.198493e-01	 1.500000e+00
-7.951457e-01	 5.198493e-01	 2.250000e+00
-7.951457e-01	 5.198493e-01	 3
-7.071068e-01	 -7.071068e-01	 0
-7.071068e-01	 -7.071068e-01	 3.750000e-01
-7.071068e-01	 -7.071068e-01	 7.500000e-01
-7.071068e-01	 -7.071068e-01	 1.125000e+00
-7.071068e-01	 -7.071068e-01	 1.500000e+00
-7.071068e-01	 -7.071068e-01	 1.875000e+00
-7.071068e-01	 -7.071068e-01	 2.250000e+00
-7.071068e-01	 -7.071068e-01	 2.625000e+00
-7.071068e-01	 -7.071068e-01	 3.000000e+00
-7.071068e-01	 7.071068e-01	 0
-7.071068e-01	 7.071068e-01	 3.750000e-01
-7.071068e-01	 7.071068e-01	 7.500000e-01
-7.071068e-01	 7.071068e-01	 1.125000e+00
-7.071068e-01	 7.071068e-01	 1.500000e+00
-7.071068e-01	 7.071068e-01	 1.875000e+00
-7.071068e-01	 7.071068e-01	 2.250000e+00
-7.071068e-01	 7.071068e-01	 2.625000e+00
-7.071068e-01	 7.071068e-01	 3.000000e+00
-6.982679e-01	 -6.982679e-01	 7.500000e-01
-6.982679e-01	 6.982679e-01	 7.500000e-01
-6.982679e-01	 -6.982679e-01	 0
-6.982679e-01	 -6.982679e-01	 2.250000e+00
-6.982679e-01	 -6.982679e-01	 3.000000e+00
-6.982679e-01	 6.982679e-01	 0
-6.982679e-01	 6.982679e-01	 2.250000e+00
-6.982679e-01	 6.982679e-01	 3.000000e+00
-6.982679e-01	 -6.982679e-01	 1.500000e+00
-6.982679e-01	 6.982679e-01	 1.500000e+00
-6.894291e-01	 -6.894291e-01	 3.750000e-01
-6.894291e-01	 -6.894291e-01	 2.625000e+00
-6.894291e-01	 -6.894291e-01	 0
-6.894291e-01	 -6.894291e-01	 1.500000e+00
-6.894291e-01	 -6.894291e-01	 2.250000e+00
-6.894291e-01	 -6.894291e-01	 3.000000e+00
-6.894291e-01	 6.894291e-01	 3.750000e-01
-6.894291e-01	 6.894291e-01	 2.625000e+00
-6.894291e-01	 -6.894291e-01	 1.875000e+00
-6.894291e-01	 6.894291e-01	 1.875000e+00
-6.894291e-01	 -6.894291e-01	 7.500000e-01
-6.894291e-01	 -6.894291e-01	 1.125000e+00
-6.894291e-01	 6.894291e-01	 0
-6.894291e-01	 6.894291e-01	 1.500000e+00
-6.894291e-01	 6.894291e-01	 2.250000e+00
-6.894291e-01	 6.894291e-01	 3.000000e+00
-6.894291e-01	 6.894291e-01	 7.500000e-01
-6.894291e-01	 6.894291e-01	 1.125000e+00
-6.805903e-01	 6.805903e-01	 7.500000e-01
-6.805903e-01	 -6.805903e-01	 7.500000e-01
-6.805903e-01	 -6.805903e-01	 0
-6.805903e-01	 -6.805903e-01	 1.500000e+00
-6.805903e-01	 -6.805903e-01	 3.000000e+00
-6.805903e-01	 6.805903e-01	 0
-6.805903e-01	 6.805903e-01	 1.500000e+00
-6.805903e-01	 6.805903e-01	 3.000000e+00
-6.805903e-01	 6.805903e-01	 2.250000e+00
-6.805903e-01	 -6.805903e-01	 2.250000e+00
-6.717514e-01	 -6.717514e-01	 2.625000e+00
-6.717514e-01	 6.717514e-01	 2.625000e+00
-6.717514e-01	 -6.717514e-01	 0
-6.717514e-01	 -6.717514e-01	 3.750000e-01
-6.717514e-01	 -6.717514e-01	 7.500000e-01
-6.717514e-01	 -6.717514e-01	 1.125000e+00
-6.717514e-01	 -6.717514e-01	 1.875000e+00
-6.717514e-01	 -6.717514e-01	 3.000000e+00
-6.717514e-01	 -6.717514e-01	 2.250000e+00
-6.717514e-01	 6.717514e-01	 1.500000e+00
-6.717514e-01	 6.717514e-01	 0
-6.717514e-01	 6.717514e-01	 3.750000e-01
-6.717514e-01	 6.717514e-01	 7.500000e-01
-6.717514e-01	 6.717514e-01	 1.125000e+00
-6.717514e-01	 6.717514e-01	 1.875000e+00
-6.717514e-01	 6.717514e-01	 3.000000e+00
-6.717514e-01	 -6.717514e-01	 1.500000e+00
-6.717514e-01	 6.717514e-01	 2.250000e+00
-5.472098e-01	 -8.369955e-01	 0
-5.472098e-01	 -8.369955e-01	 7.500000e-01
-5.472098e-01	 -8.369955e-01	 1.500000e+00
-5.472098e-01	 -8.369955e-01	 2.250000e+00
-5.472098e-01	 -8.369955e-01	 3
-5.472098e-01	 8.369955e-01	 0
-5.472098e-01	 8.369955e-01	 7.500000e-01
-5.472098e-01	 8.369955e-01	 1.500000e+00
-5.472098e-01	 8.369955e-01	 2.250000e+00
-5.472098e-01	 8.369955e-01	 3
-5.335295e-01	 -8.160706e-01	 1.500000e+00
-5.335295e-01	 -8.160706e-01	 2.250000e+00
-5.335295e-01	 8.160706e-01	 0
-5.335295e-01	 8.160706e-01	 3.000000e+00
[...]
POINT_DATA 832
VECTORS displacement float
0	 0	 5.892360e-09
1.305223e-08	 -1.202416e-02	 5.400005e-09
2.396630e-08	 -2.229968e-02	 4.163457e-09
3.149053e-08	 -2.902890e-02	 2.232776e-09
3.387230e-08	 -3.153651e-02	 -4.224047e-12
3.148178e-08	 -2.902890e-02	 -2.240655e-09
2.395292e-08	 -2.229968e-02	 -4.169525e-09
1.304280e-08	 -1.202416e-02	 -5.404360e-09
0	 0	 -5.896157e-09
0	 0	 5.426697e-09
3.392835e-08	 -3.288236e-02	 -4.097863e-12
0	 0	 -5.430789e-09
2.399258e-08	 -2.325134e-02	 -3.840617e-09
2.400602e-08	 -2.325134e-02	 3.834573e-09
-1.298360e-02	 -2.356897e-02	 -3.074293e-03
0	 0	 -4.347707e-03
-1.836159e-02	 -3.333156e-02	 -3.454710e-12
0	 0	 4.347707e-03
1.298365e-02	 -2.356897e-02	 -3.074301e-03
0	 0	 4.347718e-03
1.836165e-02	 -3.333156e-02	 -4.844239e-12
0	 0	 -4.347718e-03
1.298365e-02	 -2.356897e-02	 3.074301e-03
-1.298360e-02	 -2.356897e-02	 3.074293e-03
2.403681e-08	 -2.420222e-02	 3.506196e-09
3.157367e-08	 -3.153151e-02	 1.901501e-09
0	 0	 4.961761e-09
1.308670e-08	 -1.306078e-02	 4.598040e-09
3.156494e-08	 -3.153151e-02	 -1.908842e-09
1.307727e-08	 -1.306078e-02	 -4.602940e-09
0	 0	 -4.966148e-09
3.397185e-08	 -3.422710e-02	 -3.977383e-12
2.402336e-08	 -2.420222e-02	 -3.512220e-09
3.400711e-08	 -3.556316e-02	 -3.856368e-12
2.404832e-08	 -2.514695e-02	 -3.183390e-09
0	 0	 4.496217e-09
2.406177e-08	 -2.514695e-02	 3.177390e-09
0	 0	 -4.500895e-09
0	 0	 -3.685328e-03
0	 0	 3.685328e-03
-1.797648e-02	 -3.563750e-02	 -3.477323e-12
0	 0	 3.685337e-03
0	 0	 -3.685337e-03
1.797654e-02	 -3.563750e-02	 -4.572376e-12
1.271133e-02	 -2.519951e-02	 2.605927e-03
-1.271129e-02	 -2.519952e-02	 -2.605920e-03
-1.271129e-02	 -2.519952e-02	 2.605920e-03
1.271133e-02	 -2.519951e-02	 -2.605927e-03
0	 0	 4.029293e-09
1.310349e-08	 -1.409317e-02	 3.794153e-09
3.161429e-08	 -3.402393e-02	 1.569431e-09
3.402830e-08	 -3.690520e-02	 -3.733395e-12
3.160565e-08	 -3.402393e-02	 -1.576236e-09
2.406332e-08	 -2.609591e-02	 -2.853592e-09
1.309413e-08	 -1.409317e-02	 -3.799599e-09
0	 0	 -4.034268e-09
2.407672e-08	 -2.609591e-02	 2.847615e-09
-1.755993e-02	 -3.795201e-02	 -3.503124e-12
0	 0	 -3.021938e-03
0	 0	 3.021938e-03
1.241679e-02	 -2.683612e-02	 -2.136838e-03
0	 0	 3.021946e-03
1.756000e-02	 -3.795201e-02	 -4.303511e-12
0	 0	 -3.021946e-03
-1.241675e-02	 -2.683612e-02	 -2.136833e-03
-1.241675e-02	 -2.683612e-02	 2.136833e-03
1.241679e-02	 -2.683612e-02	 2.136838e-03
-3.173866e-02	 -3.532756e-02	 -3.143120e-03
0	 0	 -8.281611e-03
-2.409973e-02	 -2.701930e-02	 -5.855983e-03
-3.408217e-02	 -3.821106e-02	 -2.100952e-12
-3.173866e-02	 -3.532756e-02	 3.143120e-03
-2.409973e-02	 -2.701930e-02	 5.855983e-03
-1.314658e-02	 -1.463315e-02	 7.588162e-03
0	 0	 8.281611e-03
-1.314658e-02	 -1.463315e-02	 -7.588162e-03
1.314660e-02	 -1.463315e-02	 7.588170e-03
2.409977e-02	 -2.701930e-02	 -5.855989e-03
1.314660e-02	 -1.463315e-02	 -7.588170e-03
0	 0	 8.281619e-03
2.409977e-02	 -2.701930e-02	 5.855989e-03
3.408222e-02	 -3.821106e-02	 -5.071126e-12
3.173871e-02	 -3.532756e-02	 -3.143123e-03
0	 0	 -8.281619e-03
3.173871e-02	 -3.532756e-02	 3.143123e-03
2.389837e-02	 -2.766993e-02	 5.411379e-03
0	 0	 -7.652837e-03
-2.389833e-02	 -2.766994e-02	 -5.411373e-03
-2.389833e-02	 -2.766994e-02	 5.411373e-03
0	 0	 7.652837e-03
0	 0	 7.652845e-03
2.389837e-02	 -2.766993e-02	 -5.411379e-03
0	 0	 -7.652845e-03
-3.379735e-02	 -3.913120e-02	 -2.439531e-12
3.379740e-02	 -3.913120e-02	 -5.009875e-12
-3.118941e-02	 -3.702019e-02	 -2.695567e-03
-1.291908e-02	 -1.533427e-02	 6.507675e-03
0	 0	 -7.024767e-03
-1.291908e-02	 -1.533427e-02	 -6.507675e-03
-3.349951e-02	 -4.004579e-02	 -2.776295e-12
0	 0	 7.024767e-03
1.291910e-02	 -1.533426e-02	 -6.507681e-03
3.118946e-02	 -3.702019e-02	 2.695570e-03
0	 0	 7.024774e-03
1.291910e-02	 -1.533426e-02	 6.507681e-03
0	 0	 -7.024774e-03
-2.368773e-02	 -2.831665e-02	 -4.967260e-03
-3.118941e-02	 -3.702019e-02	 2.695567e-03
3.118946e-02	 -3.702019e-02	 -2.695570e-03
3.349956e-02	 -4.004578e-02	 -4.947646e-12
-2.368773e-02	 -2.831665e-02	 4.967260e-03
2.368777e-02	 -2.831664e-02	 4.967265e-03
2.368777e-02	 -2.831664e-02	 -4.967265e-03
3.319624e-02	 -4.095213e-02	 -4.886518e-12
-3.319619e-02	 -4.095214e-02	 -3.111687e-12
0	 0	 -6.396262e-03
0	 0	 6.396262e-03
0	 0	 6.396268e-03
0	 0	 -6.396268e-03
-2.347325e-02	 -2.895753e-02	 4.522840e-03
-2.347325e-02	 -2.895753e-02	 -4.522840e-03
2.347329e-02	 -2.895753e-02	 -4.522845e-03
2.347329e-02	 -2.895753e-02	 4.522845e-03
-3.059915e-02	 -3.868969e-02	 -2.247174e-03
-3.059915e-02	 -3.868969e-02	 2.247174e-03
-1.267458e-02	 -1.602579e-02	 5.425157e-03
-2.324744e-02	 -2.959665e-02	 4.077224e-03
3.059919e-02	 -3.868968e-02	 2.247176e-03
0	 0	 -5.766065e-03
0	 0	 5.766065e-03
-1.267458e-02	 -1.602579e-02	 -5.425157e-03
-2.324744e-02	 -2.959665e-02	 -4.077224e-03
1.267460e-02	 -1.602579e-02	 5.425162e-03
2.324748e-02	 -2.959665e-02	 4.077228e-03
2.324748e-02	 -2.959665e-02	 -4.077228e-03
1.267460e-02	 -1.602579e-02	 -5.425162e-03
0	 0	 5.766071e-03
3.059919e-02	 -3.868968e-02	 -2.247176e-03
0	 0	 -5.766071e-03
-3.287685e-02	 -4.185598e-02	 -3.449434e-12
3.287690e-02	 -4.185598e-02	 -4.826413e-12
0	 0	 -1.114019e-02
-3.133534e-02	 -3.115092e-02	 -7.877300e-03
-4.431486e-02	 -4.405406e-02	 -9.744031e-13
-3.133534e-02	 -3.115092e-02	 7.877300e-03
0	 0	 1.114019e-02
0	 0	 1.114019e-02
3.133537e-02	 -3.115091e-02	 7.877303e-03
4.431490e-02	 -4.405405e-02	 -4.733208e-12
3.133537e-02	 -3.115091e-02	 -7.877303e-03
0	 0	 -1.114019e-02
-3.102237e-02	 -3.176217e-02	 -6.692643e-03
3.102240e-02	 -3.176216e-02	 6.692645e-03
-4.387226e-02	 -4.491849e-02	 -2.124417e-12
-3.102237e-02	 -3.176217e-02	 6.692643e-03
4.387230e-02	 -4.491847e-02	 -4.971206e-12
3.102240e-02	 -3.176216e-02	 -6.692645e-03
0	 0	 -9.464826e-03
0	 0	 9.464826e-03
0	 0	 9.464829e-03
0	 0	 -9.464829e-03
-3.066651e-02	 -3.235007e-02	 -5.506862e-03
3.066654e-02	 -3.235006e-02	 5.506865e-03
0	 0	 -7.787880e-03
-4.336899e-02	 -4.574991e-02	 -3.275882e-12
-3.066651e-02	 -3.235007e-02	 5.506862e-03
0	 0	 7.787880e-03
0	 0	 7.787883e-03
4.336903e-02	 -4.574989e-02	 -5.210127e-12
3.066654e-02	 -3.235006e-02	 -5.506865e-03
0	 0	 -7.787883e-03
0	 0	 -1.206215e-02
-1.805297e-02	 -1.805297e-02	 -1.106266e-02
-3.316453e-02	 -3.316454e-02	 -8.529228e-03
-4.358372e-02	 -4.358374e-02	 -4.582304e-03
-4.690172e-02	 -4.690174e-02	 -6.267793e-13
-4.358372e-02	 -4.358374e-02	 4.582304e-03
-3.316453e-02	 -3.316454e-02	 8.529228e-03
-1.805297e-02	 -1.805297e-02	 1.106266e-02
0	 0	 1.206215e-02
0	 0	 1.206215e-02
1.805297e-02	 -1.805297e-02	 1.106266e-02
3.316454e-02	 -3.316452e-02	 8.529228e-03
4.358374e-02	 -4.358371e-02	 4.582304e-03
4.690174e-02	 -4.690172e-02	 -4.066442e-12
4.358374e-02	 -4.358371e-02	 -4.582304e-03
3.316454e-02	 -3.316452e-02	 -8.529228e-03
1.805297e-02	 -1.805297e-02	 -1.106266e-02
0	 0	 -1.206215e-02
-3.321735e-02	 -3.321737e-02	 -7.885133e-03
3.321737e-02	 -3.321735e-02	 7.885133e-03
0	 0	 -1.115126e-02
-3.321735e-02	 -3.321737e-02	 7.885133e-03
0	 0	 1.115126e-02
0	 0	 1.115126e-02
3.321737e-02	 -3.321735e-02	 -7.885133e-03
0	 0	 -1.115126e-02
-4.697643e-02	 -4.697645e-02	 -1.206928e-12
4.697645e-02	 -4.697643e-02	 -4.292355e-12
-1.809993e-02	 -1.809994e-02	 -9.493597e-03
-1.809993e-02	 -1.809994e-02	 9.493597e-03
0	 0	 -1.024126e-02
-4.703756e-02	 -4.703758e-02	 -1.784236e-12
-3.326058e-02	 -3.326059e-02	 7.241667e-03
0	 0	 1.024126e-02
1.809994e-02	 -1.809993e-02	 9.493597e-03
1.809994e-02	 -1.809993e-02	 -9.493597e-03
-4.369710e-02	 -4.369711e-02	 3.932377e-03
4.369711e-02	 -4.369709e-02	 -3.932377e-03
-3.326058e-02	 -3.326059e-02	 -7.241667e-03
-4.369710e-02	 -4.369711e-02	 -3.932377e-03
0	 0	 1.024126e-02
4.703758e-02	 -4.703755e-02	 -4.520580e-12
3.326059e-02	 -3.326057e-02	 -7.241667e-03
0	 0	 -1.024126e-02
3.326059e-02	 -3.326057e-02	 7.241667e-03
4.369711e-02	 -4.369709e-02	 3.932377e-03
3.329828e-02	 -3.329826e-02	 6.597588e-03
-3.329827e-02	 -3.329828e-02	 -6.597588e-03
0	 0	 -9.330398e-03
-4.709086e-02	 -4.709088e-02	 -2.360595e-12
0	 0	 9.330398e-03
0	 0	 9.330398e-03
4.709088e-02	 -4.709085e-02	 -4.748739e-12
0	 0	 -9.330398e-03
3.329828e-02	 -3.329826e-02	 -6.597588e-03
-3.329827e-02	 -3.329828e-02	 6.597588e-03
-1.812844e-02	 -1.812845e-02	 7.921018e-03
1.812845e-02	 -1.812844e-02	 -7.921018e-03
0	 0	 -8.417141e-03
-1.812844e-02	 -1.812845e-02	 -7.921018e-03
-3.332527e-02	 -3.332529e-02	 -5.951818e-03
-4.376593e-02	 -4.376595e-02	 -3.280993e-03
-4.376593e-02	 -4.376595e-02	 3.280993e-03
0	 0	 8.417141e-03
-3.332527e-02	 -3.332529e-02	 5.951818e-03
4.712908e-02	 -4.712905e-02	 -4.977869e-12
0	 0	 8.417141e-03
1.812845e-02	 -1.812844e-02	 7.921018e-03
3.332529e-02	 -3.332527e-02	 5.951818e-03
4.376595e-02	 -4.376593e-02	 3.280993e-03
4.376595e-02	 -4.376593e-02	 -3.280993e-03
0	 0	 -8.417141e-03
-4.712905e-02	 -4.712908e-02	 -2.942941e-12
3.332529e-02	 -3.332527e-02	 -5.951818e-03
0	 0	 -1.114019e-02
-3.115092e-02	 -3.133536e-02	 -7.877303e-03
-4.405405e-02	 -4.431490e-02	 -1.567876e-12
-3.115092e-02	 -3.133536e-02	 7.877303e-03
0	 0	 1.114019e-02
0	 0	 1.114018e-02
3.115092e-02	 -3.133533e-02	 7.877300e-03
4.405405e-02	 -4.431486e-02	 -3.338779e-12
3.115092e-02	 -3.133533e-02	 -7.877300e-03
0	 0	 -1.114018e-02
-4.491848e-02	 -4.387230e-02	 -2.329322e-12
-3.176216e-02	 -3.102240e-02	 6.692645e-03
0	 0	 9.464825e-03
0	 0	 -9.464825e-03
4.491848e-02	 -4.387225e-02	 -4.028434e-12
3.176216e-02	 -3.102237e-02	 -6.692642e-03
-3.176216e-02	 -3.102240e-02	 -6.692645e-03
0	 0	 -9.464829e-03
0	 0	 9.464829e-03
3.176216e-02	 -3.102237e-02	 6.692642e-03
3.235007e-02	 -3.066650e-02	 5.506862e-03
-3.235006e-02	 -3.066653e-02	 -5.506864e-03
0	 0	 -7.787882e-03
-4.574990e-02	 -4.336903e-02	 -3.091706e-12
-3.235006e-02	 -3.066653e-02	 5.506864e-03
0	 0	 7.787882e-03
0	 0	 7.787879e-03
4.574991e-02	 -4.336898e-02	 -4.724015e-12
3.235007e-02	 -3.066650e-02	 -5.506862e-03
0	 0	 -7.787879e-03
-3.532755e-02	 -3.173870e-02	 -3.143122e-03
3.532755e-02	 -3.173865e-02	 3.143119e-03
0	 0	 -8.281618e-03
-2.701930e-02	 -2.409976e-02	 -5.855988e-03
-3.821106e-02	 -3.408221e-02	 -3.829421e-12
-3.532755e-02	 -3.173870e-02	 3.143122e-03
0	 0	 8.281618e-03
0	 0	 8.281609e-03
2.701930e-02	 -2.409972e-02	 5.855982e-03
3.821106e-02	 -3.408216e-02	 -2.487181e-12
3.532755e-02	 -3.173865e-02	 -3.143119e-03
2.701930e-02	 -2.409972e-02	 -5.855982e-03
1.463315e-02	 -1.314658e-02	 -7.588161e-03
0	 0	 -8.281609e-03
-1.463315e-02	 -1.314660e-02	 -7.588169e-03
-2.701930e-02	 -2.409976e-02	 5.855988e-03
-1.463315e-02	 -1.314660e-02	 7.588169e-03
1.463315e-02	 -1.314658e-02	 7.588161e-03
-3.913120e-02	 -3.379739e-02	 -3.949011e-12
3.913119e-02	 -3.379734e-02	 -3.034485e-12
-2.766993e-02	 -2.389836e-02	 -5.411378e-03
0	 0	 -7.652844e-03
-2.766993e-02	 -2.389836e-02	 5.411378e-03
0	 0	 7.652844e-03
0	 0	 7.652836e-03
2.766993e-02	 -2.389833e-02	 5.411372e-03
2.766993e-02	 -2.389833e-02	 -5.411372e-03
0	 0	 -7.652836e-03
-2.831664e-02	 -2.368776e-02	 4.967265e-03
2.831664e-02	 -2.368772e-02	 -4.967259e-03
3.702019e-02	 -3.118940e-02	 2.695567e-03
1.533426e-02	 -1.291907e-02	 -6.507674e-03
0	 0	 -7.024773e-03
-1.533426e-02	 -1.291909e-02	 -6.507680e-03
0	 0	 7.024773e-03
-4.004578e-02	 -3.349955e-02	 -4.070211e-12
0	 0	 7.024766e-03
1.533426e-02	 -1.291907e-02	 6.507674e-03
4.004578e-02	 -3.349950e-02	 -3.582633e-12
0	 0	 -7.024766e-03
-3.702019e-02	 -3.118945e-02	 -2.695569e-03
-3.702019e-02	 -3.118945e-02	 2.695569e-03
-2.831664e-02	 -2.368776e-02	 -4.967265e-03
2.831664e-02	 -2.368772e-02	 4.967259e-03
3.702019e-02	 -3.118940e-02	 -2.695567e-03
-1.533426e-02	 -1.291909e-02	 6.507680e-03
-4.095213e-02	 -3.319623e-02	 -4.191701e-12
-2.895753e-02	 -2.347328e-02	 4.522844e-03
2.895753e-02	 -2.347324e-02	 -4.522840e-03
0	 0	 6.396261e-03
0	 0	 -6.396261e-03
4.095213e-02	 -3.319618e-02	 -4.132563e-12
0	 0	 -6.396268e-03
0	 0	 6.396268e-03
-2.895753e-02	 -2.347328e-02	 -4.522844e-03
2.895753e-02	 -2.347324e-02	 4.522840e-03
-3.868968e-02	 -3.059919e-02	 -2.247176e-03
0	 0	 -5.766070e-03
-3.868968e-02	 -3.059919e-02	 2.247176e-03
0	 0	 5.766070e-03
-4.185598e-02	 -3.287689e-02	 -4.312485e-12
0	 0	 5.766064e-03
0	 0	 -5.766064e-03
3.868968e-02	 -3.059914e-02	 2.247173e-03
3.868968e-02	 -3.059914e-02	 -2.247173e-03
1.602579e-02	 -1.267458e-02	 -5.425156e-03
-1.602579e-02	 -1.267460e-02	 -5.425162e-03
-2.959665e-02	 -2.324747e-02	 -4.077227e-03
-2.959665e-02	 -2.324747e-02	 4.077227e-03
-1.602579e-02	 -1.267460e-02	 5.425162e-03
4.185598e-02	 -3.287684e-02	 -4.684849e-12
1.602579e-02	 -1.267458e-02	 5.425156e-03
2.959665e-02	 -2.324743e-02	 -4.077223e-03
2.959665e-02	 -2.324743e-02	 4.077223e-03
-2.356897e-02	 -1.298364e-02	 -3.074300e-03
2.356897e-02	 -1.298360e-02	 3.074292e-03
0	 0	 -4.347716e-03
-3.333156e-02	 -1.836164e-02	 -5.777472e-12
0	 0	 4.347716e-03
0	 0	 4.347705e-03
3.333155e-02	 -1.836158e-02	 -1.786448e-12
0	 0	 -4.347705e-03
-2.356897e-02	 -1.298364e-02	 3.074300e-03
2.356897e-02	 -1.298360e-02	 -3.074292e-03
-2.519951e-02	 -1.271133e-02	 -2.605926e-03
0	 0	 -3.685336e-03
0	 0	 3.685336e-03
2.519951e-02	 -1.271128e-02	 2.605920e-03
2.519951e-02	 -1.271128e-02	 -2.605920e-03
0	 0	 3.685327e-03
0	 0	 -3.685327e-03
-2.519951e-02	 -1.271133e-02	 2.605926e-03
3.563749e-02	 -1.797647e-02	 -3.173391e-12
-3.563749e-02	 -1.797653e-02	 -5.464238e-12
3.795201e-02	 -1.755992e-02	 -4.565339e-12
0	 0	 -3.021945e-03
-3.795201e-02	 -1.755999e-02	 -5.149945e-12
0	 0	 3.021945e-03
0	 0	 3.021937e-03
0	 0	 -3.021937e-03
-2.683612e-02	 -1.241678e-02	 2.136838e-03
-2.683612e-02	 -1.241678e-02	 -2.136838e-03
2.683612e-02	 -1.241674e-02	 2.136832e-03
2.683612e-02	 -1.241674e-02	 -2.136832e-03
0	 0	 -4.575878e-09
-1.202416e-02	 -8.672642e-09	 -4.197691e-09
-2.229968e-02	 -1.596047e-08	 -3.239423e-09
-2.902889e-02	 -2.094915e-08	 -1.744194e-09
-3.153650e-02	 -2.258753e-08	 -7.525284e-12
-2.902889e-02	 -2.097312e-08	 1.731571e-09
-2.229968e-02	 -1.599078e-08	 3.231017e-09
-1.202416e-02	 -8.694358e-09	 4.192898e-09
0	 0	 4.573004e-09
0	 0	 -4.265387e-09
-3.288236e-02	 -2.261935e-08	 -6.988931e-12
0	 0	 4.261590e-09
-2.325134e-02	 -1.601336e-08	 3.011095e-09
-2.325134e-02	 -1.598294e-08	 -3.019578e-09
-2.420222e-02	 -1.600262e-08	 -2.799782e-09
-3.153151e-02	 -2.100135e-08	 -1.522839e-09
0	 0	 -3.954969e-09
-1.306078e-02	 -8.694246e-09	 -3.664366e-09
-3.153151e-02	 -2.102544e-08	 1.511237e-09
-1.306078e-02	 -8.716086e-09	 3.658543e-09
0	 0	 3.950247e-09
-3.422710e-02	 -2.264724e-08	 -6.452802e-12
-2.420222e-02	 -1.603314e-08	 2.791221e-09
-3.556316e-02	 -2.267134e-08	 -5.916704e-12
-2.514695e-02	 -1.605023e-08	 2.571120e-09
0	 0	 -3.644231e-09
-2.514695e-02	 -1.601961e-08	 -2.579761e-09
0	 0	 3.638582e-09
0	 0	 -3.332857e-09
-1.409317e-02	 -8.709231e-09	 -3.129797e-09
-3.402392e-02	 -2.103757e-08	 -1.300966e-09
-3.690519e-02	 -2.269131e-08	 -5.378319e-12
-3.402392e-02	 -2.106174e-08	 1.290389e-09
-2.609591e-02	 -1.606437e-08	 2.350574e-09
-1.409317e-02	 -8.731157e-09	 3.122938e-09
0	 0	 3.326279e-09
-2.609591e-02	 -1.603366e-08	 -2.359292e-09
2.609591e-02	 2.714404e-08	 -3.040574e-09
0	 0	 -4.297807e-09
1.409317e-02	 1.478312e-08	 -4.051790e-09
3.402392e-02	 3.564164e-08	 -1.681099e-09
3.690519e-02	 3.833677e-08	 -4.629387e-12
3.402392e-02	 3.560667e-08	 1.672476e-09
2.609591e-02	 2.709994e-08	 3.031230e-09
1.409317e-02	 1.475248e-08	 4.040371e-09
0	 0	 4.285778e-09
0	 0	 -4.824315e-09
2.514695e-02	 2.712875e-08	 -3.411817e-09
0	 0	 4.811088e-09
3.556316e-02	 3.831520e-08	 -3.881996e-12
2.514695e-02	 2.708471e-08	 3.402332e-09
3.422710e-02	 3.827571e-08	 -3.139469e-12
2.420221e-02	 2.705680e-08	 3.772269e-09
0	 0	 -5.349151e-09
1.306078e-02	 1.476563e-08	 -4.958367e-09
3.153151e-02	 3.556446e-08	 2.047651e-09
1.306078e-02	 1.473501e-08	 4.945399e-09
0	 0	 5.334742e-09
2.420221e-02	 2.710073e-08	 -3.781892e-09
3.153151e-02	 3.559940e-08	 -2.054713e-09
2.325134e-02	 2.706567e-08	 -4.151458e-09
2.325134e-02	 2.702188e-08	 4.141697e-09
0	 0	 -5.873266e-09
3.288236e-02	 3.822629e-08	 -2.398632e-12
0	 0	 5.857675e-09
0	 0	 -6.398366e-09
1.202416e-02	 1.472621e-08	 -5.862763e-09
2.229967e-02	 2.701932e-08	 -4.521711e-09
2.902889e-02	 3.550443e-08	 -2.427430e-09
3.153650e-02	 3.816100e-08	 -1.656124e-12
2.902889e-02	 3.546967e-08	 2.421923e-09
2.229967e-02	 2.697572e-08	 4.511809e-09
1.202416e-02	 1.469572e-08	 5.848252e-09
0	 0	 6.381581e-09
-2.683612e-02	 1.241675e-02	 2.136833e-03
-2.683612e-02	 1.241675e-02	 -2.136833e-03
2.683612e-02	 1.241679e-02	 -2.136838e-03
2.683612e-02	 1.241679e-02	 2.136838e-03
0	 0	 3.021938e-03
0	 0	 -3.021938e-03
0	 0	 -3.021945e-03
3.795200e-02	 1.756000e-02	 -4.677372e-12
0	 0	 3.021945e-03
-3.795201e-02	 1.755994e-02	 -5.726520e-12
3.563749e-02	 1.797654e-02	 -3.519949e-12
-3.563749e-02	 1.797649e-02	 -7.387558e-12
2.519951e-02	 1.271133e-02	 2.605927e-03
0	 0	 3.685329e-03
0	 0	 -3.685329e-03
-2.519951e-02	 1.271130e-02	 2.605921e-03
-2.519951e-02	 1.271130e-02	 -2.605921e-03
0	 0	 -3.685337e-03
0	 0	 3.685337e-03
2.519951e-02	 1.271133e-02	 -2.605927e-03
-2.356897e-02	 1.298361e-02	 -3.074293e-03
2.356897e-02	 1.298365e-02	 3.074300e-03
0	 0	 4.347707e-03
-3.333156e-02	 1.836160e-02	 -9.047337e-12
0	 0	 -4.347707e-03
0	 0	 -4.347717e-03
3.333155e-02	 1.836165e-02	 -2.363057e-12
0	 0	 4.347717e-03
-2.356897e-02	 1.298361e-02	 3.074293e-03
2.356897e-02	 1.298365e-02	 -3.074300e-03
-2.959665e-02	 2.324744e-02	 4.077224e-03
-2.959665e-02	 2.324744e-02	 -4.077224e-03
-1.602579e-02	 1.267458e-02	 5.425157e-03
-4.185598e-02	 3.287685e-02	 -5.461111e-12
1.602579e-02	 1.267460e-02	 -5.425162e-03
2.959664e-02	 2.324747e-02	 -4.077227e-03
2.959664e-02	 2.324747e-02	 4.077227e-03
1.602579e-02	 1.267460e-02	 5.425162e-03
-3.868968e-02	 3.059915e-02	 2.247174e-03
-3.868968e-02	 3.059915e-02	 -2.247174e-03
-1.602579e-02	 1.267458e-02	 -5.425157e-03
0	 0	 5.766065e-03
0	 0	 -5.766065e-03
4.185597e-02	 3.287689e-02	 -5.003797e-12
0	 0	 -5.766070e-03
3.868967e-02	 3.059919e-02	 2.247176e-03
0	 0	 5.766070e-03
3.868967e-02	 3.059919e-02	 -2.247176e-03
-2.895753e-02	 2.347325e-02	 4.522840e-03
2.895752e-02	 2.347328e-02	 -4.522844e-03
0	 0	 -6.396268e-03
0	 0	 6.396268e-03
-4.095213e-02	 3.319619e-02	 -6.330880e-12
0	 0	 6.396262e-03
0	 0	 -6.396262e-03
-2.895753e-02	 2.347325e-02	 -4.522840e-03
2.895752e-02	 2.347328e-02	 4.522844e-03
4.095212e-02	 3.319623e-02	 -4.867036e-12
1.533426e-02	 1.291910e-02	 6.507680e-03
-2.831664e-02	 2.368773e-02	 4.967260e-03
-3.702019e-02	 3.118941e-02	 -2.695567e-03
2.831664e-02	 2.368776e-02	 -4.967265e-03
3.702018e-02	 3.118945e-02	 2.695569e-03
3.702018e-02	 3.118945e-02	 -2.695569e-03
0	 0	 7.024767e-03
-1.533426e-02	 1.291908e-02	 6.507675e-03
-4.004578e-02	 3.349951e-02	 -7.191964e-12
0	 0	 -7.024767e-03
4.004578e-02	 3.349955e-02	 -4.731405e-12
0	 0	 -7.024773e-03
1.533426e-02	 1.291910e-02	 -6.507680e-03
0	 0	 7.024773e-03
-3.702019e-02	 3.118942e-02	 2.695567e-03
-1.533426e-02	 1.291908e-02	 -6.507675e-03
-2.831664e-02	 2.368773e-02	 -4.967260e-03
2.831664e-02	 2.368776e-02	 4.967265e-03
0	 0	 7.652837e-03
-2.766993e-02	 2.389834e-02	 5.411373e-03
-2.766993e-02	 2.389833e-02	 -5.411373e-03
0	 0	 -7.652837e-03
0	 0	 -7.652844e-03
2.766993e-02	 2.389837e-02	 5.411378e-03
0	 0	 7.652844e-03
2.766993e-02	 2.389837e-02	 -5.411378e-03
-3.913120e-02	 3.379735e-02	 -8.051209e-12
3.913119e-02	 3.379739e-02	 -4.596967e-12
-1.463315e-02	 1.314658e-02	 7.588162e-03
1.463315e-02	 1.314660e-02	 -7.588169e-03
2.701930e-02	 2.409976e-02	 5.855988e-03
1.463315e-02	 1.314660e-02	 7.588169e-03
0	 0	 8.281611e-03
-2.701930e-02	 2.409973e-02	 5.855983e-03
-3.821106e-02	 3.408217e-02	 -8.917047e-12
-3.532755e-02	 3.173866e-02	 -3.143120e-03
-2.701930e-02	 2.409973e-02	 -5.855983e-03
-1.463315e-02	 1.314658e-02	 -7.588162e-03
0	 0	 -8.281611e-03
0	 0	 -8.281618e-03
2.701930e-02	 2.409976e-02	 -5.855988e-03
3.821105e-02	 3.408221e-02	 -4.460915e-12
3.532755e-02	 3.173870e-02	 3.143122e-03
0	 0	 8.281618e-03
-3.532755e-02	 3.173866e-02	 3.143120e-03
3.532755e-02	 3.173870e-02	 -3.143122e-03
0	 0	 7.787879e-03
-4.574990e-02	 4.336899e-02	 -5.035477e-12