# vtk DataFile Version 3.0
Unstructured Grid Example
ASCII
DATASET UNSTRUCTURED_GRID
POINTS 832 float
-1	 0	 0
-1	 0	 3.750000e-01
-1	 0	 7.500000e-01
-1	 0	 1.125000e+00
-1	 0	 1.500000e+00
-1	 0	 1.875000e+00
-1	 0	 2.250000e+00
-1	 0	 2.625000e+00
-1	 0	 3
-9.875000e-01	 0	 0
-9.875000e-01	 0	 1.500000e+00
-9.875000e-01	 0	 3
-9.875000e-01	 0	 2.250000e+00
-9.875000e-01	 0	 7.500000e-01
-9.833054e-01	 -1.819631e-01	 7.500000e-01
-9.833054e-01	 -1.819631e-01	 0
-9.833054e-01	 -1.819631e-01	 1.500000e+00
-9.833054e-01	 -1.819631e-01	 3.000000e+00
-9.833054e-01	 1.819631e-01	 2.250000e+00
-9.833054e-01	 1.819631e-01	 0
-9.833054e-01	 1.819631e-01	 1.500000e+00
-9.833054e-01	 1.819631e-01	 3.000000e+00
-9.833054e-01	 1.819631e-01	 7.500000e-01
-9.833054e-01	 -1.819631e-01	 2.250000e+00
-9.750000e-01	 0	 7.500000e-01
-9.750000e-01	 0	 1.125000e+00
-9.750000e-01	 0	 0
-9.750000e-01	 0	 3.750000e-01
-9.750000e-01	 0	 1.875000e+00
-9.750000e-01	 0	 2.625000e+00
-9.750000e-01	 0	 3
-9.750000e-01	 0	 1.500000e+00
-9.750000e-01	 0	 2.250000e+00
-9.625000e-01	 0	 1.500000e+00
-9.625000e-01	 0	 2.250000e+00
-9.625000e-01	 0	 0
-9.625000e-01	 0	 7.500000e-01
-9.625000e-01	 0	 3
-9.587227e-01	 -1.774140e-01	 0
-9.587227e-01	 -1.774140e-01	 3.000000e+00
-9.587227e-01	 -1.774140e-01	 1.500000e+00
-9.587227e-01	 1.774140e-01	 0
-9.587227e-01	 1.774140e-01	 3.000000e+00
-9.587227e-01	 1.774140e-01	 1.500000e+00
-9.587227e-01	 1.774140e-01	 7.500000e-01
-9.587227e-01	 -1.774140e-01	 7.500000e-01
-9.587227e-01	 -1.774140e-01	 2.250000e+00
-9.587227e-01	 1.774140e-01	 2.250000e+00
-9.500000e-01	 0	 0
-9.500000e-01	 0	 3.750000e-01
-9.500000e-01	 0	 1.125000e+00
-9.500000e-01	 0	 1.500000e+00
-9.500000e-01	 0	 1.875000e+00
-9.500000e-01	 0	 2.250000e+00
-9.500000e-01	 0	 2.625000e+00
-9.500000e-01	 0	 3
-9.500000e-01	 0	 7.500000e-01
-9.341401e-01	 -1.728649e-01	 1.500000e+00
-9.341401e-01	 -1.728649e-01	 0
-9.341401e-01	 -1.728649e-01	 3.000000e+00
-9.341401e-01	 1.728649e-01	 2.250000e+00
-9.341401e-01	 1.728649e-01	 0
-9.341401e-01	 1.728649e-01	 1.500000e+00
-9.341401e-01	 1.728649e-01	 3.000000e+00
-9.341401e-01	 -1.728649e-01	 7.500000e-01
-9.341401e-01	 -1.728649e-01	 2.250000e+00
-9.341401e-01	 1.728649e-01	 7.500000e-01
-9.297883e-01	 -3.680947e-01	 1.125000e+00
-9.297883e-01	 -3.680947e-01	 0
-9.297883e-01	 -3.680947e-01	 7.500000e-01
-9.297883e-01	 -3.680947e-01	 1.500000e+00
-9.297883e-01	 -3.680947e-01	 1.875000e+00
-9.297883e-01	 -3.680947e-01	 2.250000e+00
-9.297883e-01	 -3.680947e-01	 2.625000e+00
-9.297883e-01	 -3.680947e-01	 3.000000e+00
-9.297883e-01	 -3.680947e-01	 3.750000e-01
-9.297883e-01	 3.680947e-01	 3.750000e-01
-9.297883e-01	 3.680947e-01	 2.250000e+00
-9.297883e-01	 3.680947e-01	 2.625000e+00
-9.297883e-01	 3.680947e-01	 0
-9.297883e-01	 3.680947e-01	 7.500000e-01
-9.297883e-01	 3.680947e-01	 1.500000e+00
-9.297883e-01	 3.680947e-01	 1.875000e+00
-9.297883e-01	 3.680947e-01	 3.000000e+00
-9.297883e-01	 3.680947e-01	 1.125000e+00
-9.181659e-01	 3.634935e-01	 7.500000e-01
-9.181659e-01	 -3.634935e-01	 0
-9.181659e-01	 -3.634935e-01	 7.500000e-01
-9.181659e-01	 -3.634935e-01	 2.250000e+00
-9.181659e-01	 -3.634935e-01	 3
-9.181659e-01	 3.634935e-01	 0
-9.181659e-01	 3.634935e-01	 2.250000e+00
-9.181659e-01	 3.634935e-01	 3
-9.181659e-01	 -3.634935e-01	 1.500000e+00
-9.181659e-01	 3.634935e-01	 1.500000e+00
-9.065436e-01	 -3.588923e-01	 1.125000e+00
-9.065436e-01	 -3.588923e-01	 2.625000e+00
-9.065436e-01	 -3.588923e-01	 0
-9.065436e-01	 -3.588923e-01	 3.750000e-01
-9.065436e-01	 -3.588923e-01	 1.500000e+00
-9.065436e-01	 -3.588923e-01	 3
-9.065436e-01	 3.588923e-01	 2.625000e+00
-9.065436e-01	 3.588923e-01	 1.125000e+00
-9.065436e-01	 3.588923e-01	 0
-9.065436e-01	 3.588923e-01	 3.750000e-01
-9.065436e-01	 3.588923e-01	 3
-9.065436e-01	 -3.588923e-01	 7.500000e-01
-9.065436e-01	 -3.588923e-01	 1.875000e+00
-9.065436e-01	 3.588923e-01	 1.875000e+00
-9.065436e-01	 3.588923e-01	 1.500000e+00
-9.065436e-01	 -3.588923e-01	 2.250000e+00
-9.065436e-01	 3.588923e-01	 7.500000e-01
-9.065436e-01	 3.588923e-01	 2.250000e+00
-8.949212e-01	 3.542912e-01	 1.500000e+00
-8.949212e-01	 -3.542912e-01	 1.500000e+00
-8.949212e-01	 -3.542912e-01	 0
-8.949212e-01	 -3.542912e-01	 3.000000e+00
-8.949212e-01	 3.542912e-01	 0
-8.949212e-01	 3.542912e-01	 3.000000e+00
-8.949212e-01	 -3.542912e-01	 2.250000e+00
-8.949212e-01	 -3.542912e-01	 7.500000e-01
-8.949212e-01	 3.542912e-01	 2.250000e+00
-8.949212e-01	 3.542912e-01	 7.500000e-01
-8.832989e-01	 -3.496900e-01	 1.125000e+00
-8.832989e-01	 -3.496900e-01	 1.875000e+00
-8.832989e-01	 -3.496900e-01	 2.625000e+00
-8.832989e-01	 -3.496900e-01	 2.250000e+00
-8.832989e-01	 3.496900e-01	 1.125000e+00
-8.832989e-01	 -3.496900e-01	 0
-8.832989e-01	 -3.496900e-01	 3.000000e+00
-8.832989e-01	 -3.496900e-01	 3.750000e-01
-8.832989e-01	 -3.496900e-01	 7.500000e-01
-8.832989e-01	 3.496900e-01	 3.750000e-01
-8.832989e-01	 3.496900e-01	 7.500000e-01
-8.832989e-01	 3.496900e-01	 2.250000e+00
-8.832989e-01	 3.496900e-01	 2.625000e+00
-8.832989e-01	 3.496900e-01	 0
-8.832989e-01	 3.496900e-01	 1.875000e+00
-8.832989e-01	 3.496900e-01	 3.000000e+00
-8.832989e-01	 -3.496900e-01	 1.500000e+00
-8.832989e-01	 3.496900e-01	 1.500000e+00
-8.369955e-01	 -5.472098e-01	 0
-8.369955e-01	 -5.472098e-01	 7.500000e-01
-8.369955e-01	 -5.472098e-01	 1.500000e+00
-8.369955e-01	 -5.472098e-01	 2.250000e+00
-8.369955e-01	 -5.472098e-01	 3
-8.369955e-01	 5.472098e-01	 0
-8.369955e-01	 5.472098e-01	 7.500000e-01
-8.369955e-01	 5.472098e-01	 1.500000e+00
-8.369955e-01	 5.472098e-01	 2.250000e+00
-8.369955e-01	 5.472098e-01	 3
-8.160706e-01	 -5.335295e-01	 7.500000e-01
-8.160706e-01	 5.335295e-01	 7.500000e-01
-8.160706e-01	 -5.335295e-01	 1.500000e+00
-8.160706e-01	 -5.335295e-01	 2.250000e+00
-8.160706e-01	 5.335295e-01	 1.500000e+00
-8.160706e-01	 5.335295e-01	 2.250000e+00
-8.160706e-01	 -5.335295e-01	 0
-8.160706e-01	 -5.335295e-01	 3.000000e+00
-8.160706e-01	 5.335295e-01	 0
-8.160706e-01	 5.335295e-01	 3.000000e+00
-7.951457e-01	 -5.198493e-01	 7.500000e-01
-7.951457e-01	 5.198493e-01	 7.500000e-01
-7.951457e-01	 -5.198493e-01	 0
-7.951457e-01	 -5.198493e-01	 1.500000e+00
-7.951457e-01	 -5.198493e-01	 2.250000e+00
-7.951457e-01	 -5.198493e-01	 3
-7.951457e-01	 5.198493e-01	 0
-7.951457e-01	 5.198493e-01	 1.500000e+00
-7.951457e-01	 5.198493e-01	 2.250000e+00
-7.951457e-01	 5.198493e-01	 3
-7.071068e-01	 -7.071068e-01	 0
-7.071068e-01	 -7.071068e-01	 3.750000e-01
-7.071068e-01	 -7.071068e-01	 7.500000e-01
-7.071068e-01	 -7.071068e-01	 1.125000e+00
-7.071068e-01	 -7.071068e-01	 1.500000e+00
-7.071068e-01	 -7.071068e-01	 1.875000e+00
-7.071068e-01	 -7.071068e-01	 2.250000e+00
-7.071068e-01	 -7.071068e-01	 2.625000e+00
-7.071068e-01	 -7.071068e-01	 3.000000e+00
-7.071068e-01	 7.071068e-01	 0
-7.071068e-01	 7.071068e-01	 3.750000e-01
-7.071068e-01	 7.071068e-01	 7.500000e-01
-7.071068e-01	 7.071068e-01	 1.125000e+00
-7.071068e-01	 7.071068e-01	 1.500000e+00
-7.071068e-01	 7.071068e-01	 1.875000e+00
-7.071068e-01	 7.071068e-01	 2.250000e+00
-7.071068e-01	 7.071068e-01	 2.625000e+00
-7.071068e-01	 7.071068e-01	 3.000000e+00
-6.982679e-01	 -6.982679e-01	 7.500000e-01
-6.982679e-01	 6.982679e-01	 7.500000e-01
-6.982679e-01	 -6.982679e-01	 0
-6.982679e-01	 -6.982679e-01	 2.250000e+00
-6.982679e-01	 -6.982679e-01	 3.000000e+00
-6.982679e-01	 6.982679e-01	 0
-6.982679e-01	 6.982679e-01	 2.250000e+00
-6.982679e-01	 6.982679e-01	 3.000000e+00
-6.982679e-01	 -6.982679e-01	 1.500000e+00
-6.982679e-01	 6.982679e-01	 1.500000e+00
-6.894291e-01	 -6.894291e-01	 3.750000e-01
-6.894291e-01	 -6.894291e-01	 2.625000e+00
-6.894291e-01	 -6.894291e-01	 0
-6.894291e-01	 -6.894291e-01	 1.500000e+00
-6.894291e-01	 -6.894291e-01	 2.250000e+00
-6.894291e-01	 -6.894291e-01	 3.000000e+00
-6.894291e-01	 6.894291e-01	 3.750000e-01
-6.894291e-01	 6.894291e-01	 2.625000e+00
-6.894291e-01	 -6.894291e-01	 1.875000e+00
-6.894291e-01	 6.894291e-01	 1.875000e+00
-6.894291e-01	 -6.894291e-01	 7.500000e-01
-6.894291e-01	 -6.894291e-01	 1.125000e+00
-6.894291e-01	 6.894291e-01	 0
-6.894291e-01	 6.894291e-01	 1.500000e+00
-6.894291e-01	 6.894291e-01	 2.250000e+00
-6.894291e-01	 6.894291e-01	 3.000000e+00
-6.894291e-01	 6.894291e-01	 7.500000e-01
-6.894291e-01	 6.894291e-01	 1.125000e+00
-6.805903e-01	 6.805903e-01	 7.500000e-01
-6.805903e-01	 -6.805903e-01	 7.500000e-01
-6.805903e-01	 -6.805903e-01	 0
-6.805903e-01	 -6.805903e-01	 1.500000e+00
-6.805903e-01	 -6.805903e-01	 3.000000e+00
-6.805903e-01	 6.805903e-01	 0
-6.805903e-01	 6.805903e-01	 1.500000e+00
-6.805903e-01	 6.805903e-01	 3.000000e+00
-6.805903e-01	 6.805903e-01	 2.250000e+00
-6.805903e-01	 -6.805903e-01	 2.250000e+00
-6.717514e-01	 -6.717514e-01	 2.625000e+00
-6.717514e-01	 6.717514e-01	 2.625000e+00
-6.717514e-01	 -6.717514e-01	 0
-6.717514e-01	 -6.717514e-01	 3.750000e-01
-6.717514e-01	 -6.717514e-01	 7.500000e-01
-6.717514e-01	 -6.717514e-01	 1.125000e+00
-6.717514e-01	 -6.717514e-01	 1.875000e+00
-6.717514e-01	 -6.717514e-01	 3.000000e+00
-6.717514e-01	 -6.717514e-01	 2.250000e+00
-6.717514e-01	 6.717514e-01	 1.500000e+00
-6.717514e-01	 6.717514e-01	 0
-6.717514e-01	 6.717514e-01	 3.750000e-01
-6.717514e-01	 6.717514e-01	 7.500000e-01
-6.717514e-01	 6.717514e-01	 1.125000e+00
-6.717514e-01	 6.717514e-01	 1.875000e+00
-6.717514e-01	 6.717514e-01	 3.000000e+00
-6.717514e-01	 -6.717514e-01	 1.500000e+00
-6.717514e-01	 6.717514e-01	 2.250000e+00
-5.472098e-01	 -8.369955e-01	 0
-5.472098e-01	 -8.369955e-01	 7.500000e-01
-5.472098e-01	 -8.369955e-01	 1.500000e+00
-5.472098e-01	 -8.369955e-01	 2.250000e+00
-5.472098e-01	 -8.369955e-01	 3
-5.472098e-01	 8.369955e-01	 0
-5.472098e-01	 8.369955e-01	 7.500000e-01
-5.472098e-01	 8.369955e-01	 1.500000e+00
-5.472098e-01	 8.369955e-01	 2.250000e+00
-5.472098e-01	 8.369955e-01	 3
-5.335295e-01	 -8.160706e-01	 1.500000e+00
-5.335295e-01	 -8.160706e-01	 2.250000e+00
-5.335295e-01	 8.160706e-01	 0
-5.335295e-01	 8.160706e-01	 3.000000e+00
[...]
POINT_DATA 832
VECTORS displacement float
0	 0	 -1.108592e-02
-5.002914e-02	 -2.383297e-10	 -7.150693e-03
-6.671891e-02	 -3.462417e-10	 8.670172e-12
-5.002914e-02	 -2.477191e-10	 7.150693e-03
4.364517e-11	 -1.448752e-11	 1.108592e-02
5.002914e-02	 2.229648e-10	 7.150693e-03
6.671891e-02	 3.304151e-10	 -2.712995e-12
5.002914e-02	 2.314121e-10	 -7.150693e-03
0	 0	 -1.108592e-02
0	 0	 -8.934167e-03
4.379833e-11	 -1.643184e-11	 8.934167e-03
0	 0	 -8.934167e-03
6.694166e-02	 3.470560e-10	 -1.807191e-12
-6.694166e-02	 -3.659120e-10	 7.564084e-12
-6.372287e-02	 -2.056300e-03	 5.603762e-12
0	 0	 -1.047855e-02
1.587440e-11	 -1.570501e-11	 1.047855e-02
0	 0	 -1.047855e-02
6.372287e-02	 -2.056299e-03	 -4.944414e-12
0	 0	 -1.047855e-02
6.367321e-11	 -1.890410e-11	 1.047855e-02
0	 0	 -1.047855e-02
-6.372287e-02	 2.056299e-03	 1.017279e-11
6.372287e-02	 2.056299e-03	 6.484894e-13
-6.712003e-02	 -3.855276e-10	 6.463886e-12
-5.028289e-02	 -2.785922e-10	 4.864988e-03
0	 0	 -6.786559e-03
-5.028289e-02	 -2.667770e-10	 -4.864988e-03
5.028289e-02	 2.463501e-10	 4.864988e-03
5.028289e-02	 2.570083e-10	 -4.864988e-03
0	 0	 -6.786559e-03
4.390860e-11	 -1.836316e-11	 6.786559e-03
6.712003e-02	 3.636858e-10	 -9.050388e-13
4.400797e-11	 -2.027922e-11	 4.634253e-03
6.729220e-02	 3.801866e-10	 -9.658073e-16
0	 0	 -4.634253e-03
-6.729220e-02	 -4.050021e-10	 5.361797e-12
0	 0	 -4.634253e-03
0	 0	 -6.492651e-03
0	 0	 -6.492651e-03
1.665699e-11	 -1.952302e-11	 6.492651e-03
0	 0	 -6.492651e-03
0	 0	 -6.492651e-03
6.356405e-11	 -2.028815e-11	 6.492651e-03
-6.415473e-02	 1.082815e-03	 7.591567e-12
-6.415473e-02	 -1.082816e-03	 4.386808e-12
6.415473e-02	 1.082816e-03	 1.669304e-12
6.415473e-02	 -1.082815e-03	 -2.784306e-12
0	 0	 -2.469461e-03
-5.042112e-02	 -2.952062e-10	 -2.568766e-03
-5.042112e-02	 -3.094385e-10	 2.568766e-03
4.406064e-11	 -2.220508e-11	 2.469461e-03
5.042112e-02	 2.697566e-10	 2.568766e-03
6.741613e-02	 3.968396e-10	 9.110148e-13
5.042112e-02	 2.826137e-10	 -2.568766e-03
0	 0	 -2.469461e-03
-6.741613e-02	 -4.246537e-10	 4.248760e-12
1.743476e-11	 -2.337717e-11	 2.495361e-03
0	 0	 -2.495361e-03
0	 0	 -2.495361e-03
6.448634e-02	 -7.899831e-05	 -6.188493e-13
0	 0	 -2.495361e-03
6.326386e-11	 -2.164171e-11	 2.495361e-03
0	 0	 -2.495361e-03
-6.448634e-02	 -7.899915e-05	 3.162805e-12
6.448634e-02	 7.899912e-05	 2.695143e-12
-6.448634e-02	 7.899828e-05	 5.000607e-12
-3.805863e-02	 -1.171082e-03	 5.137348e-03
0	 0	 -8.002170e-03
-5.120465e-02	 -2.110789e-04	 1.692709e-12
-1.272806e-11	 -2.366508e-11	 8.002170e-03
3.805863e-02	 1.171082e-03	 5.137348e-03
5.120465e-02	 2.110788e-04	 4.246859e-12
3.805863e-02	 1.171082e-03	 -5.137348e-03
0	 0	 -8.002170e-03
-3.805863e-02	 -1.171082e-03	 -5.137348e-03
-3.805863e-02	 1.171082e-03	 -5.137347e-03
5.120465e-02	 -2.110780e-04	 -5.130737e-12
3.805863e-02	 -1.171082e-03	 -5.137347e-03
0	 0	 -8.002170e-03
-5.120465e-02	 2.110779e-04	 9.956114e-12
6.323981e-11	 -2.140667e-11	 8.002170e-03
3.805863e-02	 -1.171082e-03	 5.137347e-03
0	 0	 -8.002170e-03
-3.805863e-02	 1.171082e-03	 5.137347e-03
-5.171024e-02	 -6.393648e-04	 8.705735e-12
0	 0	 -6.457390e-03
-5.171024e-02	 6.393639e-04	 1.673167e-12
5.171024e-02	 -6.393639e-04	 4.273916e-12
0	 0	 -6.457390e-03
0	 0	 -6.457390e-03
5.171024e-02	 6.393648e-04	 -4.101054e-12
0	 0	 -6.457390e-03
-1.207419e-11	 -2.534235e-11	 6.457390e-03
6.360132e-11	 -2.095220e-11	 6.457390e-03
-3.876031e-02	 1.184163e-04	 3.503461e-03
3.876031e-02	 -1.184163e-04	 -3.503461e-03
0	 0	 -4.914874e-03
-3.876031e-02	 1.184163e-04	 -3.503461e-03
-1.141005e-11	 -2.702478e-11	 4.914874e-03
0	 0	 -4.914874e-03
3.876031e-02	 1.184170e-04	 -3.503461e-03
-3.876031e-02	 -1.184170e-04	 3.503461e-03
0	 0	 -4.914874e-03
-3.876031e-02	 -1.184170e-04	 -3.503461e-03
0	 0	 -4.914874e-03
-5.218938e-02	 1.499917e-03	 1.654940e-12
3.876031e-02	 -1.184163e-04	 3.503461e-03
3.876031e-02	 1.184170e-04	 3.503461e-03
6.391144e-11	 -2.047304e-11	 4.914874e-03
5.218938e-02	 -1.499917e-03	 4.301262e-12
-5.218938e-02	 -1.499918e-03	 7.460195e-12
5.218938e-02	 1.499918e-03	 -3.074887e-12
6.421246e-11	 -2.001066e-11	 3.368990e-03
-1.074778e-11	 -2.867935e-11	 3.368991e-03
0	 0	 -3.368991e-03
0	 0	 -3.368991e-03
0	 0	 -3.368990e-03
0	 0	 -3.368990e-03
5.266331e-02	 -2.352884e-03	 4.328504e-12
-5.266331e-02	 2.352884e-03	 1.636062e-12
5.266331e-02	 2.352885e-03	 -2.046939e-12
-5.266331e-02	 -2.352885e-03	 6.212063e-12
-3.939206e-02	 1.434872e-03	 1.861289e-03
3.939206e-02	 -1.434872e-03	 1.861289e-03
3.939206e-02	 -1.434872e-03	 -1.861289e-03
5.311226e-02	 -3.225458e-03	 4.357957e-12
-3.939206e-02	 -1.434872e-03	 1.861289e-03
0	 0	 -1.814524e-03
0	 0	 -1.814524e-03
-3.939206e-02	 1.434872e-03	 -1.861289e-03
-5.311226e-02	 3.225458e-03	 1.614081e-12
-3.939206e-02	 -1.434872e-03	 -1.861289e-03
-5.311226e-02	 -3.225459e-03	 4.953731e-12
5.311226e-02	 3.225459e-03	 -1.012680e-12
3.939206e-02	 1.434872e-03	 -1.861289e-03
0	 0	 -1.814524e-03
3.939206e-02	 1.434872e-03	 1.861289e-03
0	 0	 -1.814524e-03
-1.007390e-11	 -3.034399e-11	 1.814524e-03
6.445286e-11	 -1.951627e-11	 1.814524e-03
0	 0	 -4.444169e-03
-3.544497e-02	 5.890498e-03	 -2.039549e-12
-3.433989e-11	 -3.434219e-11	 4.444169e-03
3.544497e-02	 -5.890498e-03	 6.999374e-12
0	 0	 -4.444169e-03
0	 0	 -4.444169e-03
-3.544497e-02	 -5.890499e-03	 7.877153e-12
4.669275e-11	 -1.565066e-11	 4.444169e-03
3.544497e-02	 5.890499e-03	 -3.535139e-12
0	 0	 -4.444169e-03
-3.682760e-02	 7.814021e-03	 -8.876444e-13
-3.682760e-02	 -7.814022e-03	 6.112813e-12
-3.308264e-11	 -3.632064e-11	 2.770311e-03
3.682760e-02	 -7.814021e-03	 6.123507e-12
4.853754e-11	 -1.303261e-11	 2.770311e-03
3.682760e-02	 7.814022e-03	 -2.097644e-12
0	 0	 -2.770311e-03
0	 0	 -2.770311e-03
0	 0	 -2.770311e-03
0	 0	 -2.770311e-03
-3.819134e-02	 9.779520e-03	 2.636656e-13
-3.819134e-02	 -9.779521e-03	 4.341119e-12
0	 0	 -1.091973e-03
-3.173471e-11	 -3.826730e-11	 1.091973e-03
3.819134e-02	 -9.779520e-03	 5.248096e-12
0	 0	 -1.091973e-03
0	 0	 -1.091973e-03
5.030163e-11	 -1.032323e-11	 1.091973e-03
3.819134e-02	 9.779521e-03	 -6.571772e-13
0	 0	 -1.091973e-03
0	 0	 -1.439847e-10
-1.333091e-02	 1.333091e-02	 -9.473564e-11
-1.923332e-02	 1.923332e-02	 -4.216404e-12
-1.333091e-02	 1.333091e-02	 8.985023e-11
-4.295064e-11	 -4.323876e-11	 1.445589e-10
1.333091e-02	 -1.333091e-02	 9.759424e-11
1.923332e-02	 -1.923332e-02	 8.117334e-12
1.333091e-02	 -1.333091e-02	 -8.383314e-11
0	 0	 -1.351756e-10
0	 0	 1.344637e-10
-1.333091e-02	 -1.333091e-02	 8.829715e-11
-1.923332e-02	 -1.923332e-02	 4.639469e-12
-1.333091e-02	 -1.333091e-02	 -8.019810e-11
2.010619e-11	 4.346223e-12	 -1.278723e-10
1.333091e-02	 1.333091e-02	 -8.272778e-11
1.923332e-02	 1.923332e-02	 -1.038007e-12
1.333091e-02	 1.333091e-02	 8.117767e-11
0	 0	 1.271913e-10
-2.018208e-02	 2.018208e-02	 -3.200374e-12
-2.018208e-02	 -2.018208e-02	 4.268200e-12
0	 0	 -1.162032e-10
2.018208e-02	 -2.018208e-02	 7.370031e-12
0	 0	 -1.077480e-10
0	 0	 1.098833e-10
2.018208e-02	 2.018208e-02	 -7.759496e-13
0	 0	 1.022324e-10
-4.277174e-11	 -4.364880e-11	 1.166868e-10
2.179449e-11	 6.017242e-12	 -1.029934e-10
-1.474477e-02	 1.474477e-02	 -6.405542e-11
1.474477e-02	 -1.474477e-02	 -5.507139e-11
0	 0	 -8.846851e-11
-4.256988e-11	 -4.402032e-11	 8.886707e-11
2.113185e-02	 -2.113184e-02	 6.626277e-12
0	 0	 -8.037337e-11
-1.474477e-02	 -1.474477e-02	 6.216503e-11
1.474477e-02	 1.474477e-02	 5.534030e-11
1.474477e-02	 -1.474477e-02	 6.671844e-11
1.474477e-02	 1.474477e-02	 -5.654662e-11
-2.113185e-02	 2.113184e-02	 -2.189853e-12
-1.474477e-02	 1.474477e-02	 6.128699e-11
0	 0	 8.532710e-11
2.346945e-11	 7.664030e-12	 -7.813990e-11
2.113184e-02	 2.113185e-02	 -5.123953e-13
0	 0	 7.729675e-11
-2.113184e-02	 -2.113185e-02	 3.897388e-12
-1.474477e-02	 -1.474477e-02	 -5.440518e-11
-2.207366e-02	 -2.207366e-02	 3.524389e-12
-2.207366e-02	 2.207366e-02	 -1.179928e-12
0	 0	 -6.068579e-11
-4.236051e-11	 -4.438111e-11	 6.100117e-11
0	 0	 -5.295442e-11
0	 0	 6.072741e-11
2.513354e-11	 9.299791e-12	 -5.324090e-11
0	 0	 5.231252e-11
2.207366e-02	 2.207366e-02	 -2.480718e-13
2.207366e-02	 -2.207366e-02	 5.882690e-12
1.615905e-02	 -1.615905e-02	 -2.617973e-11
1.615905e-02	 1.615905e-02	 2.937990e-11
0	 0	 -3.274674e-11
-1.615905e-02	 1.615905e-02	 -3.324060e-11
-2.302316e-02	 2.302316e-02	 -1.627904e-13
-1.615905e-02	 1.615905e-02	 3.259382e-11
1.615905e-02	 -1.615905e-02	 3.570697e-11
0	 0	 -2.537035e-11
2.302316e-02	 -2.302316e-02	 5.133440e-12
2.681928e-11	 1.094383e-11	 -2.821253e-11
0	 0	 3.600065e-11
-1.615905e-02	 -1.615905e-02	 3.591136e-11
-2.302316e-02	 -2.302316e-02	 3.148927e-12
-1.615905e-02	 -1.615905e-02	 -2.849432e-11
1.615905e-02	 1.615905e-02	 -3.024260e-11
0	 0	 2.719749e-11
-4.210790e-11	 -4.471481e-11	 3.297117e-11
2.302316e-02	 2.302316e-02	 1.771363e-14
0	 0	 4.444169e-03
-5.890499e-03	 3.544497e-02	 -4.121282e-12
-4.048014e-11	 -4.326420e-11	 -4.444169e-03
5.890499e-03	 -3.544497e-02	 7.599597e-12
0	 0	 4.444169e-03
0	 0	 4.444169e-03
-5.890498e-03	 -3.544497e-02	 1.393948e-12
1.462400e-12	 2.867241e-11	 -4.444169e-03
5.890498e-03	 3.544497e-02	 1.024572e-12
0	 0	 4.444169e-03
-4.180364e-11	 -4.251359e-11	 -2.770311e-03
7.814022e-03	 -3.682760e-02	 6.104460e-12
0	 0	 2.770311e-03
0	 0	 2.770311e-03
3.556793e-12	 3.001985e-11	 -2.770311e-03
7.814021e-03	 3.682760e-02	 8.064235e-13
-7.814022e-03	 3.682760e-02	 -1.953849e-12
0	 0	 2.770311e-03
0	 0	 2.770311e-03
-7.814021e-03	 -3.682760e-02	 1.586891e-12
-9.779520e-03	 -3.819134e-02	 1.775134e-12
-9.779521e-03	 3.819134e-02	 2.194976e-13
0	 0	 1.091973e-03
-4.303714e-11	 -4.160302e-11	 -1.091973e-03
9.779521e-03	 -3.819134e-02	 4.607027e-12
0	 0	 1.091973e-03
0	 0	 1.091973e-03
5.758055e-12	 3.124246e-11	 -1.091973e-03
9.779520e-03	 3.819134e-02	 5.925172e-13
0	 0	 1.091973e-03
1.171082e-03	 3.805863e-02	 -5.137347e-03
1.171082e-03	 -3.805863e-02	 -5.137348e-03
0	 0	 8.002170e-03
2.110779e-04	 5.120465e-02	 -1.969440e-12
-2.769016e-11	 -2.356939e-11	 -8.002170e-03
-1.171082e-03	 -3.805863e-02	 -5.137347e-03
0	 0	 8.002170e-03
0	 0	 8.002170e-03
2.110788e-04	 -5.120465e-02	 -4.699449e-13
-7.389944e-13	 3.777302e-11	 -8.002170e-03
-1.171082e-03	 3.805863e-02	 -5.137348e-03
-2.110788e-04	 5.120465e-02	 1.508296e-12
-1.171082e-03	 3.805863e-02	 5.137348e-03
0	 0	 8.002170e-03
1.171082e-03	 3.805863e-02	 5.137347e-03
-2.110780e-04	 -5.120465e-02	 5.507284e-12
-1.171082e-03	 -3.805863e-02	 5.137347e-03
1.171082e-03	 -3.805863e-02	 5.137348e-03
-2.963315e-11	 -2.291780e-11	 -6.457390e-03
-9.296465e-13	 3.779082e-11	 -6.457390e-03
-6.393649e-04	 5.171024e-02	 -1.100258e-12
0	 0	 6.457390e-03
6.393648e-04	 -5.171024e-02	 5.043915e-12
0	 0	 6.457390e-03
0	 0	 6.457390e-03
-6.393639e-04	 -5.171024e-02	 -1.146290e-13
6.393639e-04	 5.171024e-02	 1.239380e-12
0	 0	 6.457390e-03
1.499918e-03	 -5.218938e-02	 4.584991e-12
1.499917e-03	 5.218938e-02	 9.724773e-13
-1.184163e-04	 -3.876031e-02	 -3.503461e-03
1.184163e-04	 3.876031e-02	 3.503461e-03
0	 0	 4.914874e-03
-1.184170e-04	 3.876031e-02	 3.503461e-03
0	 0	 4.914874e-03
-3.156094e-11	 -2.222364e-11	 -4.914874e-03
0	 0	 4.914874e-03
-1.184163e-04	 -3.876031e-02	 3.503461e-03
-1.089175e-12	 3.777239e-11	 -4.914874e-03
0	 0	 4.914874e-03
-1.184170e-04	 3.876031e-02	 -3.503461e-03
1.184170e-04	 -3.876031e-02	 -3.503461e-03
-1.499918e-03	 5.218938e-02	 -2.378947e-13
-1.499917e-03	 -5.218938e-02	 2.374408e-13
1.184163e-04	 3.876031e-02	 -3.503461e-03
1.184170e-04	 -3.876031e-02	 3.503461e-03
-3.345613e-11	 -2.153893e-11	 -3.368990e-03
2.352885e-03	 -5.266331e-02	 4.126401e-12
2.352884e-03	 5.266331e-02	 7.062931e-13
0	 0	 3.368991e-03
0	 0	 3.368991e-03
-1.246122e-12	 3.773208e-11	 -3.368991e-03
0	 0	 3.368990e-03
0	 0	 3.368990e-03
-2.352885e-03	 5.266331e-02	 6.242226e-13
-2.352884e-03	 -5.266331e-02	 5.901344e-13
-1.434872e-03	 3.939206e-02	 -1.861289e-03
0	 0	 1.814524e-03
1.434872e-03	 -3.939206e-02	 -1.861289e-03
0	 0	 1.814524e-03
-3.535212e-11	 -2.079436e-11	 -1.814524e-03
0	 0	 1.814524e-03
0	 0	 1.814524e-03
-1.434872e-03	 -3.939206e-02	 -1.861289e-03
1.434872e-03	 3.939206e-02	 -1.861289e-03
1.434872e-03	 3.939206e-02	 1.861289e-03
-1.434872e-03	 3.939206e-02	 1.861289e-03
-3.225459e-03	 5.311226e-02	 1.496645e-12
3.225459e-03	 -5.311226e-02	 3.663194e-12
1.434872e-03	 -3.939206e-02	 1.861289e-03
-1.385324e-12	 3.763947e-11	 -1.814524e-03
-1.434872e-03	 -3.939206e-02	 1.861289e-03
3.225458e-03	 5.311226e-02	 4.374696e-13
-3.225458e-03	 -5.311226e-02	 9.452226e-13
2.056299e-03	 6.372287e-02	 1.357354e-12
2.056300e-03	 -6.372287e-02	 -9.065645e-13
0	 0	 1.047855e-02
-1.725175e-11	 8.283474e-12	 -1.047855e-02
0	 0	 1.047855e-02
0	 0	 1.047855e-02
3.820326e-12	 2.752673e-11	 -1.047855e-02
0	 0	 1.047855e-02
-2.056299e-03	 -6.372287e-02	 2.555031e-12
-2.056300e-03	 6.372287e-02	 9.356167e-13
1.082815e-03	 6.415473e-02	 2.046844e-12
0	 0	 6.492651e-03
0	 0	 6.492651e-03
1.082816e-03	 -6.415473e-02	 -1.025708e-13
-1.082816e-03	 6.415473e-02	 5.000757e-13
0	 0	 6.492651e-03
0	 0	 6.492651e-03
-1.082815e-03	 -6.415473e-02	 2.597886e-12
1.452894e-12	 2.711568e-11	 -6.492651e-03
-2.158247e-11	 9.044236e-12	 -6.492651e-03
-9.085099e-13	 2.658437e-11	 -2.495361e-03
0	 0	 2.495361e-03
-2.595444e-11	 9.795231e-12	 -2.495361e-03
0	 0	 2.495361e-03
0	 0	 2.495361e-03
0	 0	 2.495361e-03
-7.899830e-05	 -6.448634e-02	 2.639021e-12
7.899827e-05	 6.448634e-02	 2.742913e-12
7.899913e-05	 -6.448634e-02	 7.012288e-13
-7.899914e-05	 6.448634e-02	 6.532719e-14
0	 0	 1.108592e-02
-2.405519e-10	 5.002914e-02	 7.150693e-03
-3.498814e-10	 6.671891e-02	 3.899864e-12
-2.507610e-10	 5.002914e-02	 -7.150693e-03
-1.571274e-11	 3.676279e-11	 -1.108592e-02
2.233854e-10	 -5.002914e-02	 -7.150693e-03
3.321883e-10	 -6.671891e-02	 9.269853e-14
2.329591e-10	 -5.002914e-02	 7.150693e-03
0	 0	 1.108592e-02
0	 0	 8.934168e-03
-1.730244e-11	 3.689763e-11	 -8.934168e-03
0	 0	 8.934168e-03
3.495549e-10	 -6.694166e-02	 5.653779e-13
-3.683014e-10	 6.694166e-02	 3.761049e-12
-3.866713e-10	 6.712003e-02	 3.627203e-12
-2.799595e-10	 5.028289e-02	 -4.864988e-03
0	 0	 6.786559e-03
-2.672672e-10	 5.028289e-02	 4.864988e-03
2.478645e-10	 -5.028289e-02	 -4.864988e-03
2.596127e-10	 -5.028289e-02	 4.864988e-03
0	 0	 6.786559e-03
-1.884075e-11	 3.695289e-11	 -6.786559e-03
3.669187e-10	 -6.712003e-02	 1.030636e-12
-2.039693e-11	 3.698185e-11	 -4.634253e-03
3.841361e-10	 -6.729220e-02	 1.495293e-12
0	 0	 4.634253e-03
-4.049257e-10	 6.729220e-02	 3.493029e-12
0	 0	 4.634253e-03
0	 0	 2.469461e-03
-2.939826e-10	 5.042112e-02	 2.568766e-03
-3.091593e-10	 5.042112e-02	 -2.568766e-03
-2.196768e-11	 3.691265e-11	 -2.469461e-03
2.723464e-10	 -5.042112e-02	 -2.568766e-03
4.015086e-10	 -6.741613e-02	 1.967049e-12
2.862634e-10	 -5.042112e-02	 2.568766e-03
0	 0	 2.469461e-03
-4.233422e-10	 6.741613e-02	 3.356217e-12
4.116304e-10	 -6.741613e-02	 1.016029e-12
0	 0	 2.469461e-03
2.884229e-10	 -5.042112e-02	 2.568766e-03
2.915372e-10	 -5.042112e-02	 -2.568766e-03
-1.956915e-13	 4.741460e-12	 -2.469461e-03
-2.947839e-10	 5.042112e-02	 -2.568766e-03
-4.200007e-10	 6.741613e-02	 -2.294366e-13
-2.968758e-10	 5.042112e-02	 2.568766e-03
0	 0	 2.469461e-03
0	 0	 4.634253e-03
3.948694e-10	 -6.729220e-02	 6.716997e-13
0	 0	 4.634253e-03
1.630006e-12	 4.713197e-12	 -4.634253e-03
-4.001692e-10	 6.729220e-02	 -1.607106e-13
3.438938e-12	 4.688605e-12	 -6.786559e-03
-3.805207e-10	 6.712003e-02	 -9.317417e-14
0	 0	 6.786559e-03
2.630096e-10	 -5.028289e-02	 4.864988e-03
-2.638321e-10	 5.028289e-02	 -4.864988e-03
-2.675986e-10	 5.028289e-02	 4.864988e-03
0	 0	 6.786559e-03
3.782530e-10	 -6.712003e-02	 3.293148e-13
2.675816e-10	 -5.028289e-02	 -4.864988e-03
3.615154e-10	 -6.694166e-02	 -1.221939e-14
-3.607173e-10	 6.694166e-02	 -2.601142e-14
0	 0	 8.934168e-03
5.269276e-12	 4.673294e-12	 -8.934168e-03
0	 0	 8.934168e-03
0	 0	 1.108592e-02
2.376068e-10	 -5.002914e-02	 7.150693e-03
3.447652e-10	 -6.671891e-02	 -3.559362e-13
2.436551e-10	 -5.002914e-02	 -7.150693e-03
7.108122e-12	 4.662228e-12	 -1.108592e-02
-2.328467e-10	 5.002914e-02	 -7.150693e-03
-3.408770e-10	 6.671891e-02	 3.900168e-14
-2.383069e-10	 5.002914e-02	 7.150693e-03
0	 0	 1.108592e-02
-7.899914e-05	 6.448634e-02	 3.887956e-12
7.899912e-05	 -6.448634e-02	 1.568576e-12
-7.899828e-05	 -6.448634e-02	 1.383251e-12
7.899827e-05	 6.448634e-02	 -4.396381e-13
0	 0	 2.495361e-03
0	 0	 2.495361e-03
0	 0	 2.495361e-03
6.567130e-13	 -1.421984e-11	 -2.495361e-03
0	 0	 2.495361e-03
-1.530717e-11	 3.987481e-11	 -2.495361e-03
2.377254e-12	 -1.466705e-11	 -6.492651e-03
-1.775988e-11	 3.971686e-11	 -6.492651e-03
1.082815e-03	 6.415473e-02	 -4.590726e-13
0	 0	 6.492651e-03
0	 0	 6.492651e-03
-1.082816e-03	 6.415473e-02	 4.568557e-12
1.082816e-03	 -6.415473e-02	 4.201517e-13
0	 0	 6.492651e-03
0	 0	 6.492651e-03
-1.082815e-03	 -6.415473e-02	 8.596483e-13
2.056299e-03	 -6.372287e-02	 -7.297901e-13
2.056299e-03	 6.372287e-02	 -4.834630e-13
0	 0	 1.047855e-02
-2.012415e-11	 3.920571e-11	 -1.047855e-02
0	 0	 1.047855e-02
0	 0	 1.047855e-02
4.107405e-12	 -1.499580e-11	 -1.047855e-02
0	 0	 1.047855e-02
-2.056300e-03	 6.372287e-02	 5.251158e-12
-2.056299e-03	 -6.372287e-02	 3.412689e-13
3.225458e-03	 5.311226e-02	 3.987740e-12
-3.225458e-03	 -5.311226e-02	 1.959323e-12
1.434872e-03	 3.939206e-02	 1.861289e-03
-1.744577e-13	 6.772594e-12	 -1.814524e-03
1.434872e-03	 -3.939206e-02	 1.861289e-03
3.225459e-03	 -5.311226e-02	 1.395636e-12
-3.225459e-03	 5.311226e-02	 -4.534826e-13
-1.434872e-03	 3.939206e-02	 1.861289e-03
1.434872e-03	 3.939206e-02	 -1.861289e-03
-1.434872e-03	 -3.939206e-02	 -1.861289e-03
-1.434872e-03	 -3.939206e-02	 1.861289e-03
0	 0	 1.814524e-03
0	 0	 1.814524e-03
1.473695e-12	 -2.108781e-11	 -1.814524e-03
0	 0	 1.814524e-03
-1.434872e-03	 3.939206e-02	 -1.861289e-03
0	 0	 1.814524e-03
1.434872e-03	 -3.939206e-02	 -1.861289e-03
2.352884e-03	 5.266331e-02	 4.099964e-12
2.352885e-03	 -5.266331e-02	 1.111729e-12
0	 0	 3.368990e-03
0	 0	 3.368990e-03
-3.322750e-12	 5.524767e-12	 -3.368991e-03
0	 0	 3.368991e-03
0	 0	 3.368991e-03
-2.352884e-03	 -5.266331e-02	 1.710989e-12
-2.352885e-03	 5.266331e-02	 -4.309332e-13
1.424866e-12	 -2.109576e-11	 -3.368990e-03
-1.184170e-04	 3.876031e-02	 3.503461e-03
1.499917e-03	 5.218938e-02	 4.209771e-12
-1.184163e-04	 -3.876031e-02	 -3.503461e-03
1.499918e-03	 -5.218938e-02	 8.306527e-13
-1.184170e-04	 3.876031e-02	 -3.503461e-03
1.184170e-04	 -3.876031e-02	 -3.503461e-03
0	 0	 4.914874e-03
1.184163e-04	 3.876031e-02	 3.503461e-03
-6.433726e-12	 4.271927e-12	 -4.914874e-03
0	 0	 4.914874e-03
1.389860e-12	 -2.106849e-11	 -4.914874e-03
0	 0	 4.914874e-03
1.184170e-04	 -3.876031e-02	 3.503461e-03
0	 0	 4.914874e-03
1.184163e-04	 3.876031e-02	 -3.503461e-03
-1.184163e-04	 -3.876031e-02	 3.503461e-03
-1.499917e-03	 -5.218938e-02	 1.466622e-12
-1.499918e-03	 5.218938e-02	 -4.079405e-13
0	 0	 6.457390e-03
6.393639e-04	 5.171024e-02	 4.319913e-12
-6.393639e-04	 -5.171024e-02	 1.222452e-12
0	 0	 6.457390e-03
0	 0	 6.457390e-03
-6.393649e-04	 5.171024e-02	 -3.863760e-13
0	 0	 6.457390e-03
6.393648e-04	 -5.171024e-02	 5.491538e-13
-9.554064e-12	 3.025793e-12	 -6.457390e-03
1.348644e-12	 -2.102864e-11	 -6.457390e-03
-1.171082e-03	 3.805863e-02	 5.137348e-03
-1.171082e-03	 -3.805863e-02	 5.137347e-03
2.110779e-04	 5.120465e-02	 -3.667100e-13
1.171082e-03	 3.805863e-02	 5.137347e-03
0	 0	 8.002170e-03
-2.110788e-04	 5.120465e-02	 4.432644e-12
-1.272640e-11	 1.740322e-12	 -8.002170e-03
1.171082e-03	 -3.805863e-02	 -5.137348e-03
2.110788e-04	 -5.120465e-02	 9.746272e-13
1.171082e-03	 -3.805863e-02	 5.137348e-03
0	 0	 8.002170e-03
0	 0	 8.002170e-03
-2.110779e-04	 -5.120465e-02	 2.671884e-13
1.324303e-12	 -2.096673e-11	 -8.002170e-03
1.171082e-03	 3.805863e-02	 -5.137347e-03
0	 0	 8.002170e-03
-1.171082e-03	 3.805863e-02	 -5.137348e-03
-1.171082e-03	 -3.805863e-02	 -5.137347e-03
0	 0	 1.091973e-03
1.446774e-11	 -3.013630e-11	 -1.091973e-03
-9.779520e-03	 -3.819134e-02	 2.350263e-12
0	 0	 1.091973e-03
0	 0	 1.091973e-03
8.612989e-12	 -1.374101e-11	 -1.091973e-03
-9.779521e-03	 3.819134e-02	 -1.043767e-13