# vtk DataFile Version 3.0
Unstructured Grid Example
ASCII
DATASET UNSTRUCTURED_GRID
POINTS 832 float
-1	 0	 0
-1	 0	 3.750000e-01
-1	 0	 7.500000e-01
-1	 0	 1.125000e+00
-1	 0	 1.500000e+00
-1	 0	 1.875000e+00
-1	 0	 2.250000e+00
-1	 0	 2.625000e+00
-1	 0	 3
-9.875000e-01	 0	 0
-9.875000e-01	 0	 1.500000e+00
-9.875000e-01	 0	 3
-9.875000e-01	 0	 2.250000e+00
-9.875000e-01	 0	 7.500000e-01
-9.833054e-01	 -1.819631e-01	 7.500000e-01
-9.833054e-01	 -1.819631e-01	 0
-9.833054e-01	 -1.819631e-01	 1.500000e+00
-9.833054e-01	 -1.819631e-01	 3.000000e+00
-9.833054e-01	 1.819631e-01	 2.250000e+00
-9.833054e-01	 1.819631e-01	 0
-9.833054e-01	 1.819631e-01	 1.500000e+00
-9.833054e-01	 1.819631e-01	 3.000000e+00
-9.833054e-01	 1.819631e-01	 7.500000e-01
-9.833054e-01	 -1.819631e-01	 2.250000e+00
-9.750000e-01	 0	 7.500000e-01
-9.750000e-01	 0	 1.125000e+00
-9.750000e-01	 0	 0
-9.750000e-01	 0	 3.750000e-01
-9.750000e-01	 0	 1.875000e+00
-9.750000e-01	 0	 2.625000e+00
-9.750000e-01	 0	 3
-9.750000e-01	 0	 1.500000e+00
-9.750000e-01	 0	 2.250000e+00
-9.625000e-01	 0	 1.500000e+00
-9.625000e-01	 0	 2.250000e+00
-9.625000e-01	 0	 0
-9.625000e-01	 0	 7.500000e-01
-9.625000e-01	 0	 3
-9.587227e-01	 -1.774140e-01	 0
-9.587227e-01	 -1.774140e-01	 3.000000e+00
-9.587227e-01	 -1.774140e-01	 1.500000e+00
-9.587227e-01	 1.774140e-01	 0
-9.587227e-01	 1.774140e-01	 3.000000e+00
-9.587227e-01	 1.774140e-01	 1.500000e+00
-9.587227e-01	 1.774140e-01	 7.500000e-01
-9.587227e-01	 -1.774140e-01	 7.500000e-01
-9.587227e-01	 -1.774140e-01	 2.250000e+00
-9.587227e-01	 1.774140e-01	 2.250000e+00
-9.500000e-01	 0	 0
-9.500000e-01	 0	 3.750000e-01
-9.500000e-01	 0	 1.125000e+00
-9.500000e-01	 0	 1.500000e+00
-9.500000e-01	 0	 1.875000e+00
-9.500000e-01	 0	 2.250000e+00
-9.500000e-01	 0	 2.625000e+00
-9.500000e-01	 0	 3
-9.500000e-01	 0	 7.500000e-01
-9.341401e-01	 -1.728649e-01	 1.500000e+00
-9.341401e-01	 -1.728649e-01	 0
-9.341401e-01	 -1.728649e-01	 3.000000e+00
-9.341401e-01	 1.728649e-01	 2.250000e+00
-9.341401e-01	 1.728649e-01	 0
-9.341401e-01	 1.728649e-01	 1.500000e+00
-9.341401e-01	 1.728649e-01	 3.000000e+00
-9.341401e-01	 -1.728649e-01	 7.500000e-01
-9.341401e-01	 -1.728649e-01	 2.250000e+00
-9.341401e-01	 1.728649e-01	 7.500000e-01
-9.297883e-01	 -3.680947e-01	 1.125000e+00
-9.297883e-01	 -3.680947e-01	 0
-9.297883e-01	 -3.680947e-01	 7.500000e-01
-9.297883e-01	 -3.680947e-01	 1.500000e+00
-9.297883e-01	 -3.680947e-01	 1.875000e+00
-9.297883e-01	 -3.680947e-01	 2.250000e+00
-9.297883e-01	 -3.680947e-01	 2.625000e+00
-9.297883e-01	 -3.680947e-01	 3.000000e+00
-9.297883e-01	 -3.680947e-01	 3.750000e-01
-9.297883e-01	 3.680947e-01	 3.750000e-01
-9.297883e-01	 3.680947e-01	 2.250000e+00
-9.297883e-01	 3.680947e-01	 2.625000e+00
-9.297883e-01	 3.680947e-01	 0
-9.297883e-01	 3.680947e-01	 7.500000e-01
-9.297883e-01	 3.680947e-01	 1.500000e+00
-9.297883e-01	 3.680947e-01	 1.875000e+00
-9.297883e-01	 3.680947e-01	 3.000000e+00
-9.297883e-01	 3.680947e-01	 1.125000e+00
-9.181659e-01	 3.634935e-01	 7.500000e-01
-9.181659e-01	 -3.634935e-01	 0
-9.181659e-01	 -3.634935e-01	 7.500000e-01
-9.181659e-01	 -3.634935e-01	 2.250000e+00
-9.181659e-01	 -3.634935e-01	 3
-9.181659e-01	 3.634935e-01	 0
-9.181659e-01	 3.634935e-01	 2.250000e+00
-9.181659e-01	 3.634935e-01	 3
-9.181659e-01	 -3.634935e-01	 1.500000e+00
-9.181659e-01	 3.634935e-01	 1.500000e+00
-9.065436e-01	 -3.588923e-01	 1.125000e+00
-9.065436e-01	 -3.588923e-01	 2.625000e+00
-9.065436e-01	 -3.588923e-01	 0
-9.065436e-01	 -3.588923e-01	 3.750000e-01
-9.065436e-01	 -3.588923e-01	 1.500000e+00
-9.065436e-01	 -3.588923e-01	 3
-9.065436e-01	 3.588923e-01	 2.625000e+00
-9.065436e-01	 3.588923e-01	 1.125000e+00
-9.065436e-01	 3.588923e-01	 0
-9.065436e-01	 3.588923e-01	 3.750000e-01
-9.065436e-01	 3.588923e-01	 3
-9.065436e-01	 -3.588923e-01	 7.500000e-01
-9.065436e-01	 -3.588923e-01	 1.875000e+00
-9.065436e-01	 3.588923e-01	 1.875000e+00
-9.065436e-01	 3.588923e-01	 1.500000e+00
-9.065436e-01	 -3.588923e-01	 2.250000e+00
-9.065436e-01	 3.588923e-01	 7.500000e-01
-9.065436e-01	 3.588923e-01	 2.250000e+00
-8.949212e-01	 3.542912e-01	 1.500000e+00
-8.949212e-01	 -3.542912e-01	 1.500000e+00
-8.949212e-01	 -3.542912e-01	 0
-8.949212e-01	 -3.542912e-01	 3.000000e+00
-8.949212e-01	 3.542912e-01	 0
-8.949212e-01	 3.542912e-01	 3.000000e+00
-8.949212e-01	 -3.542912e-01	 2.250000e+00
-8.949212e-01	 -3.542912e-01	 7.500000e-01
-8.949212e-01	 3.542912e-01	 2.250000e+00
-8.949212e-01	 3.542912e-01	 7.500000e-01
-8.832989e-01	 -3.496900e-01	 1.125000e+00
-8.832989e-01	 -3.496900e-01	 1.875000e+00
-8.832989e-01	 -3.496900e-01	 2.625000e+00
-8.832989e-01	 -3.496900e-01	 2.250000e+00
-8.832989e-01	 3.496900e-01	 1.125000e+00
-8.832989e-01	 -3.496900e-01	 0
-8.832989e-01	 -3.496900e-01	 3.000000e+00
-8.832989e-01	 -3.496900e-01	 3.750000e-01
-8.832989e-01	 -3.496900e-01	 7.500000e-01
-8.832989e-01	 3.496900e-01	 3.750000e-01
-8.832989e-01	 3.496900e-01	 7.500000e-01
-8.832989e-01	 3.496900e-01	 2.250000e+00
-8.832989e-01	 3.496900e-01	 2.625000e+00
-8.832989e-01	 3.496900e-01	 0
-8.832989e-01	 3.496900e-01	 1.875000e+00
-8.832989e-01	 3.496900e-01	 3.000000e+00
-8.832989e-01	 -3.496900e-01	 1.500000e+00
-8.832989e-01	 3.496900e-01	 1.500000e+00
-8.369955e-01	 -5.472098e-01	 0
-8.369955e-01	 -5.472098e-01	 7.500000e-01
-8.369955e-01	 -5.472098e-01	 1.500000e+00
-8.369955e-01	 -5.472098e-01	 2.250000e+00
-8.369955e-01	 -5.472098e-01	 3
-8.369955e-01	 5.472098e-01	 0
-8.369955e-01	 5.472098e-01	 7.500000e-01
-8.369955e-01	 5.472098e-01	 1.500000e+00
-8.369955e-01	 5.472098e-01	 2.250000e+00
-8.369955e-01	 5.472098e-01	 3
-8.160706e-01	 -5.335295e-01	 7.500000e-01
-8.160706e-01	 5.335295e-01	 7.500000e-01
-8.160706e-01	 -5.335295e-01	 1.500000e+00
-8.160706e-01	 -5.335295e-01	 2.250000e+00
-8.160706e-01	 5.335295e-01	 1.500000e+00
-8.160706e-01	 5.335295e-01	 2.250000e+00
-8.160706e-01	 -5.335295e-01	 0
-8.160706e-01	 -5.335295e-01	 3.000000e+00
-8.160706e-01	 5.335295e-01	 0
-8.160706e-01	 5.335295e-01	 3.000000e+00
-7.951457e-01	 -5.198493e-01	 7.500000e-01
-7.951457e-01	 5.198493e-01	 7.500000e-01
-7.951457e-01	 -5.198493e-01	 0
-7.951457e-01	 -5.198493e-01	 1.500000e+00
-7.951457e-01	 -5.198493e-01	 2.250000e+00
-7.951457e-01	 -5.198493e-01	 3
-7.951457e-01	 5.198493e-01	 0
-7.951457e-01	 5.198493e-01	 1.500000e+00
-7.951457e-01	 5.198493e-01	 2.250000e+00
-7.951457e-01	 5.198493e-01	 3
-7.071068e-01	 -7.071068e-01	 0
-7.071068e-01	 -7.071068e-01	 3.750000e-01
-7.071068e-01	 -7.071068e-01	 7.500000e-01
-7.071068e-01	 -7.071068e-01	 1.125000e+00
-7.071068e-01	 -7.071068e-01	 1.500000e+00
-7.071068e-01	 -7.071068e-01	 1.875000e+00
-7.071068e-01	 -7.071068e-01	 2.250000e+00
-7.071068e-01	 -7.071068e-01	 2.625000e+00
-7.071068e-01	 -7.071068e-01	 3.000000e+00
-7.071068e-01	 7.071068e-01	 0
-7.071068e-01	 7.071068e-01	 3.750000e-01
-7.071068e-01	 7.071068e-01	 7.500000e-01
-7.071068e-01	 7.071068e-01	 1.125000e+00
-7.071068e-01	 7.071068e-01	 1.500000e+00
-7.071068e-01	 7.071068e-01	 1.875000e+00
-7.071068e-01	 7.071068e-01	 2.250000e+00
-7.071068e-01	 7.071068e-01	 2.625000e+00
-7.071068e-01	 7.071068e-01	 3.000000e+00
-6.982679e-01	 -6.982679e-01	 7.500000e-01
-6.982679e-01	 6.982679e-01	 7.500000e-01
-6.982679e-01	 -6.982679e-01	 0
-6.982679e-01	 -6.982679e-01	 2.250000e+00
-6.982679e-01	 -6.982679e-01	 3.000000e+00
-6.982679e-01	 6.982679e-01	 0
-6.982679e-01	 6.982679e-01	 2.250000e+00
-6.982679e-01	 6.982679e-01	 3.000000e+00
-6.982679e-01	 -6.982679e-01	 1.500000e+00
-6.982679e-01	 6.982679e-01	 1.500000e+00
-6.894291e-01	 -6.894291e-01	 3.750000e-01
-6.894291e-01	 -6.894291e-01	 2.625000e+00
-6.894291e-01	 -6.894291e-01	 0
-6.894291e-01	 -6.894291e-01	 1.500000e+00
-6.894291e-01	 -6.894291e-01	 2.250000e+00
-6.894291e-01	 -6.894291e-01	 3.000000e+00
-6.894291e-01	 6.894291e-01	 3.750000e-01
-6.894291e-01	 6.894291e-01	 2.625000e+00
-6.894291e-01	 -6.894291e-01	 1.875000e+00
-6.894291e-01	 6.894291e-01	 1.875000e+00
-6.894291e-01	 -6.894291e-01	 7.500000e-01
-6.894291e-01	 -6.894291e-01	 1.125000e+00
-6.894291e-01	 6.894291e-01	 0
-6.894291e-01	 6.894291e-01	 1.500000e+00
-6.894291e-01	 6.894291e-01	 2.250000e+00
-6.894291e-01	 6.894291e-01	 3.000000e+00
-6.894291e-01	 6.894291e-01	 7.500000e-01
-6.894291e-01	 6.894291e-01	 1.125000e+00
-6.805903e-01	 6.805903e-01	 7.500000e-01
-6.805903e-01	 -6.805903e-01	 7.500000e-01
-6.805903e-01	 -6.805903e-01	 0
-6.805903e-01	 -6.805903e-01	 1.500000e+00
-6.805903e-01	 -6.805903e-01	 3.000000e+00
-6.805903e-01	 6.805903e-01	 0
-6.805903e-01	 6.805903e-01	 1.500000e+00
-6.805903e-01	 6.805903e-01	 3.000000e+00
-6.805903e-01	 6.805903e-01	 2.250000e+00
-6.805903e-01	 -6.805903e-01	 2.250000e+00
-6.717514e-01	 -6.717514e-01	 2.625000e+00
-6.717514e-01	 6.717514e-01	 2.625000e+00
-6.717514e-01	 -6.717514e-01	 0
-6.717514e-01	 -6.717514e-01	 3.750000e-01
-6.717514e-01	 -6.717514e-01	 7.500000e-01
-6.717514e-01	 -6.717514e-01	 1.125000e+00
-6.717514e-01	 -6.717514e-01	 1.875000e+00
-6.717514e-01	 -6.717514e-01	 3.000000e+00
-6.717514e-01	 -6.717514e-01	 2.250000e+00
-6.717514e-01	 6.717514e-01	 1.500000e+00
-6.717514e-01	 6.717514e-01	 0
-6.717514e-01	 6.717514e-01	 3.750000e-01
-6.717514e-01	 6.717514e-01	 7.500000e-01
-6.717514e-01	 6.717514e-01	 1.125000e+00
-6.717514e-01	 6.717514e-01	 1.875000e+00
-6.717514e-01	 6.717514e-01	 3.000000e+00
-6.717514e-01	 -6.717514e-01	 1.500000e+00
-6.717514e-01	 6.717514e-01	 2.250000e+00
-5.472098e-01	 -8.369955e-01	 0
-5.472098e-01	 -8.369955e-01	 7.500000e-01
-5.472098e-01	 -8.369955e-01	 1.500000e+00
-5.472098e-01	 -8.369955e-01	 2.250000e+00
-5.472098e-01	 -8.369955e-01	 3
-5.472098e-01	 8.369955e-01	 0
-5.472098e-01	 8.369955e-01	 7.500000e-01
-5.472098e-01	 8.369955e-01	 1.500000e+00
-5.472098e-01	 8.369955e-01	 2.250000e+00
-5.472098e-01	 8.369955e-01	 3
-5.335295e-01	 -8.160706e-01	 1.500000e+00
-5.335295e-01	 -8.160706e-01	 2.250000e+00
-5.335295e-01	 8.160706e-01	 0
-5.335295e-01	 8.160706e-01	 3.000000e+00
[...]
POINT_DATA 832
VECTORS displacement float
0	 0	 -3.203029e-02
-7.668361e-11	 6.786954e-14	 -3.203029e-02
-1.070776e-10	 -8.375866e-12	 -3.203029e-02
-8.683653e-11	 -2.384282e-11	 -3.203029e-02
-3.866697e-11	 -3.569528e-11	 -3.203029e-02
-2.200174e-12	 -3.555663e-11	 -3.203029e-02
8.382712e-12	 -2.397180e-11	 -3.203029e-02
4.858363e-12	 -1.025081e-11	 -3.203029e-02
0	 0	 -3.203029e-02
0	 0	 -3.203046e-02
-3.872385e-11	 -3.823144e-11	 -3.203046e-02
0	 0	 -3.203046e-02
8.441973e-12	 -2.395647e-11	 -3.203046e-02
-1.075165e-10	 -8.438168e-12	 -3.203046e-02
-8.502424e-11	 -1.489041e-11	 -3.824934e-02
0	 0	 -3.824934e-02
-5.647786e-11	 -4.258347e-11	 -3.824934e-02
0	 0	 -3.824934e-02
-1.062446e-12	 -2.541351e-11	 -2.474379e-02
0	 0	 -2.474379e-02
-7.865162e-12	 -3.826836e-11	 -2.474379e-02
0	 0	 -2.474379e-02
-9.463365e-11	 -4.203674e-12	 -2.474379e-02
1.050180e-11	 -2.479961e-11	 -3.824934e-02
-1.077950e-10	 -8.478192e-12	 -3.203049e-02
-8.719767e-11	 -2.702271e-11	 -3.203049e-02
0	 0	 -3.203049e-02
-7.695352e-11	 1.393792e-12	 -3.203049e-02
-2.238638e-12	 -3.876898e-11	 -3.203049e-02
4.902996e-12	 -8.617200e-12	 -3.203049e-02
0	 0	 -3.203049e-02
-3.876378e-11	 -4.070339e-11	 -3.203049e-02
8.463816e-12	 -2.391592e-11	 -3.203049e-02
-3.880777e-11	 -4.316810e-11	 -3.203053e-02
8.477180e-12	 -2.389697e-11	 -3.203053e-02
0	 0	 -3.203053e-02
-1.080552e-10	 -8.525409e-12	 -3.203053e-02
0	 0	 -3.203053e-02
0	 0	 -3.825132e-02
0	 0	 -3.825132e-02
-5.669691e-11	 -4.232266e-11	 -3.825132e-02
0	 0	 -2.473985e-02
0	 0	 -2.473985e-02
-8.384997e-12	 -4.131017e-11	 -2.473985e-02
-9.563711e-11	 -8.031189e-12	 -2.473985e-02
-8.648725e-11	 -8.175020e-12	 -3.825132e-02
1.047347e-11	 -2.439271e-11	 -3.825132e-02
-5.443736e-13	 -2.291809e-11	 -2.473985e-02
0	 0	 -3.203069e-02
-7.691275e-11	 2.730958e-12	 -3.203069e-02
-8.729452e-11	 -3.018537e-11	 -3.203069e-02
-3.882047e-11	 -4.567799e-11	 -3.203069e-02
-2.373004e-12	 -4.197857e-11	 -3.203069e-02
8.439600e-12	 -2.387691e-11	 -3.203069e-02
4.919961e-12	 -6.980059e-12	 -3.203069e-02
0	 0	 -3.203069e-02
-1.081235e-10	 -8.581455e-12	 -3.203069e-02
-5.650670e-11	 -4.199689e-11	 -3.825335e-02
0	 0	 -3.825335e-02
0	 0	 -3.825335e-02
-1.417672e-13	 -2.037291e-11	 -2.473581e-02
0	 0	 -2.473581e-02
-9.133033e-12	 -4.435887e-11	 -2.473581e-02
0	 0	 -2.473581e-02
-8.748288e-11	 -1.288723e-12	 -3.825335e-02
1.046649e-11	 -2.397371e-11	 -3.825335e-02
-9.635080e-11	 -1.196963e-11	 -2.473581e-02
-2.885722e-11	 -2.387649e-11	 -4.344788e-02
0	 0	 -4.344788e-02
-9.828151e-12	 2.064185e-12	 -4.344788e-02
-2.803586e-11	 -4.322276e-11	 -4.344788e-02
-8.858103e-12	 -4.291650e-11	 -4.344788e-02
1.800156e-11	 -2.396363e-11	 -4.344788e-02
2.795174e-11	 -4.620015e-12	 -4.344788e-02
0	 0	 -4.344788e-02
5.776174e-12	 1.246623e-11	 -4.344788e-02
-4.955775e-11	 3.625558e-13	 -1.611207e-02
-2.419130e-11	 -1.912482e-11	 -1.611207e-02
-2.939795e-11	 -3.441078e-12	 -1.611207e-02
0	 0	 -1.611207e-02
-5.353423e-11	 -1.218939e-11	 -1.611207e-02
3.575969e-12	 -4.338804e-11	 -1.611207e-02
1.951170e-12	 -3.805398e-11	 -1.611207e-02
0	 0	 -1.611207e-02
-2.414875e-11	 -3.161284e-11	 -1.611207e-02
-5.479346e-11	 -1.507687e-11	 -1.611478e-02
0	 0	 -4.344627e-02
-1.212665e-11	 8.041748e-12	 -4.344627e-02
1.770018e-11	 -2.304100e-11	 -4.344627e-02
0	 0	 -4.344627e-02
0	 0	 -1.611478e-02
-2.360930e-11	 -1.729192e-11	 -1.611478e-02
0	 0	 -1.611478e-02
-2.941008e-11	 -4.021373e-11	 -4.344627e-02
3.642984e-12	 -4.383141e-11	 -1.611478e-02
-3.282129e-11	 -1.414649e-11	 -4.344447e-02
2.740531e-11	 -2.825425e-12	 -4.344447e-02
0	 0	 -4.344447e-02
2.666154e-12	 2.057752e-11	 -4.344447e-02
-3.068677e-11	 -3.721211e-11	 -4.344447e-02
0	 0	 -4.344447e-02
-2.865674e-11	 -1.505185e-12	 -1.611741e-02
-2.569022e-11	 -3.537206e-11	 -1.611741e-02
0	 0	 -1.611741e-02
-5.119106e-11	 -3.318991e-12	 -1.611741e-02
0	 0	 -1.611741e-02
-1.440440e-11	 1.395587e-11	 -4.344447e-02
-1.013056e-11	 -3.986013e-11	 -4.344447e-02
2.826418e-12	 -3.614857e-11	 -1.611741e-02
3.620120e-12	 -4.424709e-11	 -1.611741e-02
1.741083e-11	 -2.210322e-11	 -4.344447e-02
-5.603984e-11	 -1.791695e-11	 -1.611741e-02
-2.300195e-11	 -1.552739e-11	 -1.611741e-02
3.612641e-12	 -4.465401e-11	 -1.612011e-02
-3.196131e-11	 -3.422226e-11	 -4.344264e-02
0	 0	 -4.344264e-02
0	 0	 -4.344264e-02
0	 0	 -1.612011e-02
0	 0	 -1.612011e-02
1.713832e-11	 -2.118640e-11	 -4.344264e-02
-1.665734e-11	 1.982780e-11	 -4.344264e-02
-2.237677e-11	 -1.375013e-11	 -1.612011e-02
-5.727032e-11	 -2.074194e-11	 -1.612011e-02
-3.661951e-11	 -4.423378e-12	 -4.344099e-02
-1.123383e-11	 -3.678005e-11	 -4.344099e-02
2.678392e-11	 -1.063407e-12	 -4.344099e-02
1.689360e-11	 -2.025488e-11	 -4.344099e-02
-2.734449e-11	 -3.905417e-11	 -1.612288e-02
0	 0	 -4.344099e-02
0	 0	 -4.344099e-02
-5.044267e-13	 2.863239e-11	 -4.344099e-02
-1.893705e-11	 2.577188e-11	 -4.344099e-02
-5.271362e-11	 -7.018671e-12	 -1.612288e-02
-5.853111e-11	 -2.359918e-11	 -1.612288e-02
-2.169189e-11	 -1.197547e-11	 -1.612288e-02
-2.774571e-11	 3.562092e-13	 -1.612288e-02
0	 0	 -1.612288e-02
3.605495e-12	 -3.420320e-11	 -1.612288e-02
0	 0	 -1.612288e-02
-3.314578e-11	 -3.116618e-11	 -4.344099e-02
3.493352e-12	 -4.502487e-11	 -1.612288e-02
0	 0	 -4.712262e-02
6.601705e-11	 4.439302e-11	 -4.712262e-02
1.837597e-11	 -2.191950e-11	 -4.712262e-02
3.803990e-11	 -1.538057e-11	 -4.712262e-02
0	 0	 -4.712262e-02
0	 0	 -6.497981e-03
-2.627327e-11	 -2.833145e-11	 -6.497981e-03
-2.554835e-12	 -4.335107e-11	 -6.497981e-03
-3.880112e-11	 -7.474622e-12	 -6.497981e-03
0	 0	 -6.497981e-03
6.195818e-11	 5.088222e-11	 -4.712294e-02
-2.708710e-11	 -2.934743e-11	 -6.495950e-03
1.517230e-11	 -1.721668e-11	 -4.712294e-02
3.643752e-11	 -1.284304e-11	 -4.712294e-02
-1.005724e-12	 -4.104539e-11	 -6.495950e-03
-3.878706e-11	 -7.383105e-12	 -6.495950e-03
0	 0	 -4.712294e-02
0	 0	 -4.712294e-02
0	 0	 -6.495950e-03
0	 0	 -6.495950e-03
5.745983e-11	 5.715857e-11	 -4.712327e-02
-2.819643e-11	 -3.019311e-11	 -6.493868e-03
0	 0	 -4.712327e-02
1.187718e-11	 -1.253636e-11	 -4.712327e-02
3.484428e-11	 -1.027793e-11	 -4.712327e-02
0	 0	 -4.712327e-02
0	 0	 -6.493868e-03
3.414187e-13	 -3.856207e-11	 -6.493868e-03
-3.852425e-11	 -7.469114e-12	 -6.493868e-03
0	 0	 -6.493868e-03
0	 0	 -4.889720e-02
6.778085e-11	 6.140065e-11	 -4.889720e-02
8.420816e-11	 6.892037e-11	 -4.889720e-02
6.719942e-11	 3.762552e-11	 -4.889720e-02
4.697679e-11	 8.975725e-13	 -4.889720e-02
4.427156e-11	 -1.454242e-11	 -4.889720e-02
5.742001e-11	 -3.397080e-13	 -4.889720e-02
5.026700e-11	 1.506385e-11	 -4.889720e-02
0	 0	 -4.889720e-02
0	 0	 3.599393e-03
-2.632917e-11	 -1.239359e-11	 3.599393e-03
-3.877014e-11	 -2.274389e-11	 3.599393e-03
-3.916556e-11	 -2.235415e-11	 3.599393e-03
-3.232512e-11	 -2.064474e-11	 3.599393e-03
-2.635679e-11	 -1.992910e-11	 3.599393e-03
-2.404143e-11	 -1.575590e-11	 3.599393e-03
-1.555974e-11	 -1.059510e-11	 3.599393e-03
0	 0	 3.599393e-03
8.452741e-11	 6.922412e-11	 -4.889654e-02
-3.725816e-11	 -2.126235e-11	 3.599345e-03
0	 0	 -4.889654e-02
5.656890e-11	 7.253887e-13	 -4.889654e-02
0	 0	 -4.889654e-02
0	 0	 3.599345e-03
-2.536814e-11	 -1.701916e-11	 3.599345e-03
0	 0	 3.599345e-03
4.619912e-11	 1.646175e-12	 -4.889654e-02
-3.012994e-11	 -1.844143e-11	 3.599345e-03
6.822865e-11	 6.142646e-11	 -4.889567e-02
4.966171e-11	 1.592100e-11	 -4.889567e-02
0	 0	 -4.889567e-02
4.540089e-11	 2.325150e-12	 -4.889567e-02
5.570652e-11	 1.702310e-12	 -4.889567e-02
0	 0	 -4.889567e-02
-2.550958e-11	 -1.144737e-11	 3.599280e-03
-1.813303e-11	 -1.320775e-11	 3.599280e-03
4.250503e-11	 -1.277779e-11	 -4.889567e-02
-2.509317e-11	 -1.869243e-11	 3.599280e-03
8.471751e-11	 6.938665e-11	 -4.889567e-02
6.645108e-11	 3.864284e-11	 -4.889567e-02
0	 0	 3.599280e-03
-2.796641e-11	 -1.623938e-11	 3.599280e-03
-2.663963e-11	 -1.828255e-11	 3.599280e-03
0	 0	 3.599280e-03
-3.581196e-11	 -1.977774e-11	 3.599280e-03
-3.479511e-11	 -1.785735e-11	 3.599280e-03
-3.437026e-11	 -1.828481e-11	 3.599214e-03
8.487625e-11	 6.955228e-11	 -4.889477e-02
0	 0	 -4.889477e-02
4.457112e-11	 2.996175e-12	 -4.889477e-02
0	 0	 -4.889477e-02
0	 0	 3.599214e-03
-2.583563e-11	 -1.405310e-11	 3.599214e-03
0	 0	 3.599214e-03
-2.790041e-11	 -1.953935e-11	 3.599214e-03
5.482432e-11	 2.692687e-12	 -4.889477e-02
4.890026e-11	 1.660563e-11	 -4.889409e-02
-2.065999e-11	 -1.585143e-11	 3.599164e-03
0	 0	 -4.889409e-02
6.837356e-11	 6.116031e-11	 -4.889409e-02
8.488228e-11	 6.953892e-11	 -4.889409e-02
6.544852e-11	 3.943019e-11	 -4.889409e-02
4.066645e-11	 -1.109401e-11	 -4.889409e-02
0	 0	 -4.889409e-02
5.387051e-11	 3.629244e-12	 -4.889409e-02
-2.369129e-11	 -1.182210e-11	 3.599164e-03
0	 0	 3.599164e-03
-2.474144e-11	 -1.047824e-11	 3.599164e-03
-3.296001e-11	 -1.673075e-11	 3.599164e-03
-3.051996e-11	 -1.331407e-11	 3.599164e-03
-2.382810e-11	 -1.745754e-11	 3.599164e-03
0	 0	 3.599164e-03
4.367385e-11	 3.603735e-12	 -4.889409e-02
-2.914483e-11	 -2.085712e-11	 3.599164e-03
0	 0	 -4.859795e-02
6.158898e-11	 5.193497e-11	 -4.859795e-02
4.004221e-11	 -5.754401e-12	 -4.859795e-02
5.477664e-11	 2.781872e-12	 -4.859795e-02
0	 0	 -4.859795e-02
0	 0	 1.354411e-02
-5.705254e-11	 3.138331e-12	 1.354411e-02
-6.078876e-11	 1.718079e-11	 1.354411e-02
-6.135277e-12	 -3.753042e-11	 1.354411e-02
0	 0	 1.354411e-02
4.299735e-11	 -7.706470e-12	 -4.859797e-02
5.701216e-11	 1.372129e-12	 -4.859797e-02
0	 0	 1.354210e-02
0	 0	 1.354210e-02
-5.696734e-11	 1.986416e-11	 1.354210e-02
-8.555262e-12	 -3.920275e-11	 1.354210e-02
6.743708e-11	 4.839348e-11	 -4.859797e-02
0	 0	 -4.859797e-02
0	 0	 -4.859797e-02
-5.439227e-11	 4.979525e-12	 1.354210e-02
-5.164852e-11	 6.738060e-12	 1.354005e-02
7.314145e-11	 4.449343e-11	 -4.859800e-02
0	 0	 -4.859800e-02
4.584010e-11	 -9.876846e-12	 -4.859800e-02
5.907190e-11	 -3.622176e-13	 -4.859800e-02
0	 0	 -4.859800e-02
0	 0	 1.354005e-02
-5.298969e-11	 2.239075e-11	 1.354005e-02
-1.110687e-11	 -4.076199e-11	 1.354005e-02
0	 0	 1.354005e-02
2.282106e-11	 -2.798084e-11	 -4.630629e-02
-7.566747e-11	 4.270569e-11	 2.271901e-02
0	 0	 -4.630629e-02
2.676060e-11	 -1.132944e-11	 -4.630629e-02
1.936651e-11	 -4.434410e-11	 -4.630629e-02
2.436264e-11	 -5.101608e-11	 -4.630629e-02
0	 0	 -4.630629e-02
0	 0	 2.271901e-02
-6.069110e-11	 1.774780e-11	 2.271901e-02
-6.674011e-11	 4.047698e-11	 2.271901e-02
-3.581680e-11	 -2.047390e-12	 2.271901e-02
-3.450798e-12	 -4.837772e-11	 2.271901e-02
8.189868e-12	 -4.975563e-11	 2.271901e-02
0	 0	 2.271901e-02
2.166277e-11	 2.163700e-12	 -4.630629e-02
3.296595e-11	 -3.549320e-11	 -4.630629e-02
2.564667e-11	 -1.634865e-11	 -4.630629e-02
-3.242762e-11	 8.836909e-13	 2.271901e-02
2.253092e-11	 -4.572865e-11	 -4.630506e-02
-6.628233e-11	 4.097613e-11	 2.272151e-02
3.158702e-11	 -1.324779e-11	 -4.630506e-02
0	 0	 -4.630506e-02
3.656853e-11	 -3.692596e-11	 -4.630506e-02
0	 0	 -4.630506e-02
0	 0	 2.272151e-02
-6.057286e-11	 1.792678e-11	 2.272151e-02
-3.496796e-12	 -4.869416e-11	 2.272151e-02
0	 0	 2.272151e-02
4.009683e-11	 -3.835737e-11	 -4.630364e-02
-3.562418e-12	 -4.888307e-11	 2.272390e-02
-7.494857e-11	 4.321474e-11	 2.272390e-02
7.772321e-12	 -5.004599e-11	 2.272390e-02
0	 0	 -4.630364e-02
2.828584e-11	 -3.174327e-13	 -4.630364e-02
0	 0	 -4.630364e-02
2.562116e-11	 -4.700229e-11	 -4.630364e-02
0	 0	 2.272390e-02
-3.269677e-11	 8.399074e-13	 2.272390e-02
-6.579145e-11	 4.136608e-11	 2.272390e-02
0	 0	 2.272390e-02
3.065173e-11	 -3.104255e-11	 -4.630364e-02
3.059579e-11	 -5.367695e-11	 -4.630364e-02
3.632609e-11	 -1.506162e-11	 -4.630364e-02
-6.044350e-11	 1.802905e-11	 2.272390e-02
-3.506457e-11	 -1.670126e-12	 2.272390e-02
3.098017e-11	 -1.850838e-11	 -4.630364e-02
2.872720e-11	 -4.828451e-11	 -4.630218e-02
4.361197e-11	 -3.978350e-11	 -4.630218e-02
-3.632805e-12	 -4.906922e-11	 2.272636e-02
0	 0	 2.272636e-02
0	 0	 2.272636e-02
-6.529703e-11	 4.172996e-11	 2.272636e-02
0	 0	 -4.630218e-02
0	 0	 -4.630218e-02
4.105929e-11	 -1.687002e-11	 -4.630218e-02
-6.031231e-11	 1.813851e-11	 2.272636e-02
3.848304e-11	 -3.391685e-11	 -4.630092e-02
0	 0	 -4.630092e-02
3.681596e-11	 -5.621768e-11	 -4.630092e-02
0	 0	 -4.630092e-02
3.189969e-11	 -4.949244e-11	 -4.630092e-02
0	 0	 2.272891e-02
0	 0	 2.272891e-02
-7.412838e-11	 4.342724e-11	 2.272891e-02
-3.430182e-11	 -1.308147e-12	 2.272891e-02
7.252479e-12	 -5.006742e-11	 2.272891e-02
3.489339e-11	 -2.758880e-12	 -4.630092e-02
4.588098e-11	 -1.861937e-11	 -4.630092e-02
4.715626e-11	 -4.125654e-11	 -4.630092e-02
3.627726e-11	 -2.072351e-11	 -4.630092e-02
-6.474642e-11	 4.197355e-11	 2.272891e-02
-3.295936e-11	 7.542870e-13	 2.272891e-02
-3.772247e-12	 -4.911909e-11	 2.272891e-02
-6.014085e-11	 1.815779e-11	 2.272891e-02
2.257194e-11	 -5.500795e-11	 -4.232882e-02
-5.201906e-11	 6.427197e-12	 3.067527e-02
0	 0	 -4.232882e-02
2.467915e-11	 -6.451882e-11	 -4.232882e-02
0	 0	 -4.232882e-02
0	 0	 3.067527e-02
-6.015995e-11	 3.779380e-11	 3.067527e-02
0	 0	 3.067527e-02
2.538238e-11	 -7.937541e-11	 -4.232882e-02
-1.098704e-11	 -3.776562e-11	 3.067527e-02
2.266608e-11	 -5.509556e-11	 -4.233024e-02
0	 0	 -4.233024e-02
0	 0	 -4.233024e-02
-5.594965e-11	 5.702729e-12	 3.067157e-02
-6.624142e-12	 -3.703208e-11	 3.067157e-02
0	 0	 3.067157e-02
0	 0	 3.067157e-02
2.868019e-11	 -8.021991e-11	 -4.233024e-02
-6.279941e-11	 3.750054e-11	 3.067157e-02
2.208024e-11	 -6.414702e-11	 -4.233024e-02
-6.541320e-11	 3.691636e-11	 3.066779e-02
0	 0	 -4.233169e-02
1.958103e-11	 -6.313959e-11	 -4.233169e-02
0	 0	 -4.233169e-02
0	 0	 3.066779e-02
0	 0	 3.066779e-02
3.210187e-11	 -8.069705e-11	 -4.233169e-02
2.292392e-11	 -5.442908e-11	 -4.233169e-02
-5.987225e-11	 4.712920e-12	 3.066779e-02
-2.285561e-12	 -3.590855e-11	 3.066779e-02
0	 0	 -3.712058e-02
2.215135e-11	 -2.069642e-11	 -3.712058e-02
3.579873e-11	 -1.571896e-11	 -3.712058e-02
3.803115e-11	 -4.410426e-13	 -3.712058e-02
3.780478e-11	 -1.113936e-11	 -3.712058e-02
3.763376e-11	 -4.901806e-11	 -3.712058e-02
3.416417e-11	 -8.033824e-11	 -3.712058e-02
2.231387e-11	 -6.930474e-11	 -3.712058e-02
0	 0	 -3.712058e-02
0	 0	 -3.712078e-02
3.161054e-11	 -1.115068e-11	 -3.712078e-02
0	 0	 -3.712078e-02
3.258720e-11	 -8.070971e-11	 -3.712078e-02
3.040326e-11	 -1.585141e-11	 -3.712078e-02
2.513194e-11	 -1.588344e-11	 -3.712081e-02
2.525993e-11	 -4.297443e-13	 -3.712081e-02
0	 0	 -3.712081e-02
1.743150e-11	 -2.076226e-11	 -3.712081e-02
2.905544e-11	 -4.927220e-11	 -3.712081e-02
2.195587e-11	 -6.960063e-11	 -3.712081e-02
0	 0	 -3.712081e-02
2.551556e-11	 -1.110711e-11	 -3.712081e-02
3.101576e-11	 -8.091814e-11	 -3.712081e-02
1.943930e-11	 -1.106007e-11	 -3.712086e-02
2.945559e-11	 -8.110550e-11	 -3.712086e-02
0	 0	 -3.712086e-02
1.984665e-11	 -1.590007e-11	 -3.712086e-02
0	 0	 -3.712086e-02
0	 0	 -3.712105e-02
1.274847e-11	 -2.061598e-11	 -3.712105e-02
1.255200e-11	 -2.757469e-13	 -3.712105e-02
1.330095e-11	 -1.093371e-11	 -3.712105e-02
2.052236e-11	 -4.925221e-11	 -3.712105e-02
2.789642e-11	 -8.109588e-11	 -3.712105e-02
2.161986e-11	 -6.954042e-11	 -3.712105e-02
0	 0	 -3.712105e-02
1.450557e-11	 -1.578865e-11	 -3.712105e-02
-6.004455e-11	 -3.522215e-11	 3.712105e-02
0	 0	 3.712105e-02
-3.179592e-11	 -3.062874e-11	 3.712105e-02
-7.363034e-11	 -1.761486e-11	 3.712105e-02
-6.420721e-11	 7.085023e-12	 3.712105e-02
-3.240489e-11	 1.917218e-11	 3.712105e-02
-3.610437e-13	 9.843919e-12	 3.712105e-02
8.713936e-12	 -1.403796e-12	 3.712105e-02
0	 0	 3.712105e-02
0	 0	 3.712086e-02
-5.636333e-11	 -3.516913e-11	 3.712086e-02
0	 0	 3.712086e-02
-6.153372e-11	 7.013860e-12	 3.712086e-02
-4.432365e-12	 9.825714e-12	 3.712086e-02
-5.890450e-11	 6.925985e-12	 3.712081e-02
-8.442658e-12	 9.799063e-12	 3.712081e-02
0	 0	 3.712081e-02
-2.818366e-11	 -3.063877e-11	 3.712081e-02
-3.429725e-11	 1.909409e-11	 3.712081e-02
2.426105e-12	 -1.461184e-12	 3.712081e-02
0	 0	 3.712081e-02
-5.273095e-11	 -3.507235e-11	 3.712081e-02
-6.556379e-11	 -1.761957e-11	 3.712081e-02
-4.909273e-11	 -3.497437e-11	 3.712078e-02
-1.245933e-11	 9.767752e-12	 3.712078e-02
0	 0	 3.712078e-02
-5.625396e-11	 6.844868e-12	 3.712078e-02
0	 0	 3.712078e-02
0	 0	 3.712058e-02
-2.454927e-11	 -3.053431e-11	 3.712058e-02
-4.538484e-11	 -3.483957e-11	 3.712058e-02
-5.745998e-11	 -1.758485e-11	 3.712058e-02
-5.356535e-11	 6.752044e-12	 3.712058e-02
-3.619303e-11	 1.894431e-11	 3.712058e-02
-1.655588e-11	 9.730517e-12	 3.712058e-02
-3.877154e-12	 -1.483645e-12	 3.712058e-02
0	 0	 3.712058e-02
1.291343e-11	 4.876843e-11	 -3.066779e-02
2.326649e-11	 -4.520491e-11	 -3.066779e-02
-5.653545e-11	 -7.093360e-11	 4.233169e-02
-8.377121e-13	 5.256178e-11	 4.233169e-02
0	 0	 -3.066779e-02
0	 0	 -3.066779e-02
0	 0	 4.233169e-02
-6.166266e-11	 -2.199873e-11	 4.233169e-02
0	 0	 4.233169e-02
1.081597e-11	 6.875041e-11	 -3.066779e-02
-5.880043e-11	 -2.272410e-11	 4.233024e-02
2.034577e-11	 7.070679e-11	 -3.067157e-02
-4.444783e-12	 5.344893e-11	 4.233024e-02
0	 0	 -3.067157e-02
0	 0	 -3.067157e-02
2.010224e-11	 5.036898e-11	 -3.067157e-02
3.059984e-11	 -4.391753e-11	 -3.067157e-02
0	 0	 4.233024e-02
0	 0	 4.233024e-02
-5.446583e-11	 -7.161348e-11	 4.233024e-02
3.781487e-11	 -4.234601e-11	 -3.067527e-02
-8.087452e-12	 5.391624e-11	 4.232882e-02
0	 0	 -3.067527e-02
2.985954e-11	 7.232116e-11	 -3.067527e-02
0	 0	 -3.067527e-02
0	 0	 4.232882e-02
-5.593894e-11	 -2.323541e-11	 4.232882e-02
0	 0	 4.232882e-02
2.729769e-11	 5.161767e-11	 -3.067527e-02
-5.232457e-11	 -7.183958e-11	 4.232882e-02
1.100764e-11	 8.173356e-11	 -2.272891e-02
6.009968e-12	 1.859392e-11	 -2.272891e-02
1.204037e-11	 2.800226e-11	 -2.272891e-02
1.573555e-12	 1.209318e-10	 -2.272891e-02
-2.162859e-11	 -3.675723e-11	 4.630092e-02
-4.661638e-11	 -6.489857e-11	 4.630092e-02
-1.826700e-12	 5.787666e-11	 4.630092e-02
1.003106e-11	 4.752421e-11	 4.630092e-02
4.207440e-12	 1.244960e-10	 -2.272891e-02
1.291422e-12	 7.990813e-11	 -2.272891e-02
9.458799e-12	 -1.647483e-11	 -2.272891e-02
0	 0	 -2.272891e-02
0	 0	 -2.272891e-02
-6.032657e-11	 -3.313226e-11	 4.630092e-02
0	 0	 4.630092e-02
-3.170462e-11	 2.318651e-11	 4.630092e-02
0	 0	 4.630092e-02
-6.577061e-11	 -6.866900e-11	 4.630092e-02
1.145474e-11	 8.208850e-11	 -2.272636e-02
-4.847807e-11	 -6.420049e-11	 4.630218e-02
0	 0	 4.630218e-02
0	 0	 4.630218e-02
3.716442e-12	 1.218152e-10	 -2.272636e-02
0	 0	 -2.272636e-02
0	 0	 -2.272636e-02
1.025670e-11	 2.042648e-11	 -2.272636e-02
-1.144418e-12	 5.752034e-11	 4.630218e-02
-6.034820e-11	 -3.314606e-11	 4.630218e-02
1.025216e-11	 4.746848e-11	 4.630364e-02
1.197700e-11	 8.226285e-11	 -2.272390e-02
8.271245e-12	 8.280541e-11	 -2.272390e-02
-5.025872e-11	 -6.338622e-11	 4.630364e-02
-3.036632e-11	 2.258743e-11	 4.630364e-02
-6.780964e-11	 -6.799910e-11	 4.630364e-02
0	 0	 -2.272390e-02
1.256641e-11	 2.830030e-11	 -2.272390e-02
5.939030e-12	 1.224736e-10	 -2.272390e-02
0	 0	 -2.272390e-02
-6.033908e-11	 -3.308158e-11	 4.630364e-02
0	 0	 4.630364e-02
-2.463187e-11	 -3.558811e-11	 4.630364e-02
0	 0	 4.630364e-02
6.245377e-12	 1.254630e-10	 -2.272390e-02
1.504715e-11	 -1.419695e-11	 -2.272390e-02
1.447391e-11	 2.220004e-11	 -2.272390e-02
-5.221076e-13	 5.703679e-11	 4.630364e-02
0	 0	 -2.272151e-02
1.250215e-11	 8.241483e-11	 -2.272151e-02
1.871801e-11	 2.395464e-11	 -2.272151e-02
0	 0	 -2.272151e-02
0	 0	 4.630506e-02
9.170925e-14	 5.655608e-11	 4.630506e-02
0	 0	 4.630506e-02
-5.205394e-11	 -6.255686e-11	 4.630506e-02
8.161177e-12	 1.231256e-10	 -2.272151e-02
-6.031485e-11	 -3.300791e-11	 4.630506e-02
1.312823e-11	 2.850855e-11	 -2.271901e-02
-2.759481e-11	 -3.429458e-11	 4.630629e-02
7.001990e-13	 5.595192e-11	 4.630629e-02
1.040773e-11	 4.718808e-11	 4.630629e-02
0	 0	 -2.271901e-02
1.308717e-11	 8.243285e-11	 -2.271901e-02
1.048391e-11	 1.236108e-10	 -2.271901e-02
1.541441e-11	 8.539205e-11	 -2.271901e-02
2.304254e-11	 2.570902e-11	 -2.271901e-02
2.063789e-11	 -1.183823e-11	 -2.271901e-02
0	 0	 -2.271901e-02
0	 0	 4.630629e-02
-5.383485e-11	 -6.161308e-11	 4.630629e-02
-6.027474e-11	 -3.286205e-11	 4.630629e-02
-2.904325e-11	 2.190662e-11	 4.630629e-02
0	 0	 4.630629e-02
8.484144e-12	 1.259505e-10	 -2.271901e-02
-6.974305e-11	 -6.701357e-11	 4.630629e-02
0	 0	 -1.354005e-02