# vtk DataFile Version 3.0
Unstructured Grid Example
ASCII
DATASET UNSTRUCTURED_GRID
POINTS 832 float
-1	 0	 0
-1	 0	 3.750000e-01
-1	 0	 7.500000e-01
-1	 0	 1.125000e+00
-1	 0	 1.500000e+00
-1	 0	 1.875000e+00
-1	 0	 2.250000e+00
-1	 0	 2.625000e+00
-1	 0	 3
-9.875000e-01	 0	 0
-9.875000e-01	 0	 1.500000e+00
-9.875000e-01	 0	 3
-9.875000e-01	 0	 2.250000e+00
-9.875000e-01	 0	 7.500000e-01
-9.833054e-01	 -1.819631e-01	 7.500000e-01
-9.833054e-01	 -1.819631e-01	 0
-9.833054e-01	 -1.819631e-01	 1.500000e+00
-9.833054e-01	 -1.819631e-01	 3.000000e+00
-9.833054e-01	 1.819631e-01	 2.250000e+00
-9.833054e-01	 1.819631e-01	 0
-9.833054e-01	 1.819631e-01	 1.500000e+00
-9.833054e-01	 1.819631e-01	 3.000000e+00
-9.833054e-01	 1.819631e-01	 7.500000e-01
-9.833054e-01	 -1.819631e-01	 2.250000e+00
-9.750000e-01	 0	 7.500000e-01
-9.750000e-01	 0	 1.125000e+00
-9.750000e-01	 0	 0
-9.750000e-01	 0	 3.750000e-01
-9.750000e-01	 0	 1.875000e+00
-9.750000e-01	 0	 2.625000e+00
-9.750000e-01	 0	 3
-9.750000e-01	 0	 1.500000e+00
-9.750000e-01	 0	 2.250000e+00
-9.625000e-01	 0	 1.500000e+00
-9.625000e-01	 0	 2.250000e+00
-9.625000e-01	 0	 0
-9.625000e-01	 0	 7.500000e-01
-9.625000e-01	 0	 3
-9.587227e-01	 -1.774140e-01	 0
-9.587227e-01	 -1.774140e-01	 3.000000e+00
-9.587227e-01	 -1.774140e-01	 1.500000e+00
-9.587227e-01	 1.774140e-01	 0
-9.587227e-01	 1.774140e-01	 3.000000e+00
-9.587227e-01	 1.774140e-01	 1.500000e+00
-9.587227e-01	 1.774140e-01	 7.500000e-01
-9.587227e-01	 -1.774140e-01	 7.500000e-01
-9.587227e-01	 -1.774140e-01	 2.250000e+00
-9.587227e-01	 1.774140e-01	 2.250000e+00
-9.500000e-01	 0	 0
-9.500000e-01	 0	 3.750000e-01
-9.500000e-01	 0	 1.125000e+00
-9.500000e-01	 0	 1.500000e+00
-9.500000e-01	 0	 1.875000e+00
-9.500000e-01	 0	 2.250000e+00
-9.500000e-01	 0	 2.625000e+00
-9.500000e-01	 0	 3
-9.500000e-01	 0	 7.500000e-01
-9.341401e-01	 -1.728649e-01	 1.500000e+00
-9.341401e-01	 -1.728649e-01	 0
-9.341401e-01	 -1.728649e-01	 3.000000e+00
-9.341401e-01	 1.728649e-01	 2.250000e+00
-9.341401e-01	 1.728649e-01	 0
-9.341401e-01	 1.728649e-01	 1.500000e+00
-9.341401e-01	 1.728649e-01	 3.000000e+00
-9.341401e-01	 -1.728649e-01	 7.500000e-01
-9.341401e-01	 -1.728649e-01	 2.250000e+00
-9.341401e-01	 1.728649e-01	 7.500000e-01
-9.297883e-01	 -3.680947e-01	 1.125000e+00
-9.297883e-01	 -3.680947e-01	 0
-9.297883e-01	 -3.680947e-01	 7.500000e-01
-9.297883e-01	 -3.680947e-01	 1.500000e+00
-9.297883e-01	 -3.680947e-01	 1.875000e+00
-9.297883e-01	 -3.680947e-01	 2.250000e+00
-9.297883e-01	 -3.680947e-01	 2.625000e+00
-9.297883e-01	 -3.680947e-01	 3.000000e+00
-9.297883e-01	 -3.680947e-01	 3.750000e-01
-9.297883e-01	 3.680947e-01	 3.750000e-01
-9.297883e-01	 3.680947e-01	 2.250000e+00
-9.297883e-01	 3.680947e-01	 2.625000e+00
-9.297883e-01	 3.680947e-01	 0
-9.297883e-01	 3.680947e-01	 7.500000e-01
-9.297883e-01	 3.680947e-01	 1.500000e+00
-9.297883e-01	 3.680947e-01	 1.875000e+00
-9.297883e-01	 3.680947e-01	 3.000000e+00
-9.297883e-01	 3.680947e-01	 1.125000e+00
-9.181659e-01	 3.634935e-01	 7.500000e-01
-9.181659e-01	 -3.634935e-01	 0
-9.181659e-01	 -3.634935e-01	 7.500000e-01
-9.181659e-01	 -3.634935e-01	 2.250000e+00
-9.181659e-01	 -3.634935e-01	 3
-9.181659e-01	 3.634935e-01	 0
-9.181659e-01	 3.634935e-01	 2.250000e+00
-9.181659e-01	 3.634935e-01	 3
-9.181659e-01	 -3.634935e-01	 1.500000e+00
-9.181659e-01	 3.634935e-01	 1.500000e+00
-9.065436e-01	 -3.588923e-01	 1.125000e+00
-9.065436e-01	 -3.588923e-01	 2.625000e+00
-9.065436e-01	 -3.588923e-01	 0
-9.065436e-01	 -3.588923e-01	 3.750000e-01
-9.065436e-01	 -3.588923e-01	 1.500000e+00
-9.065436e-01	 -3.588923e-01	 3
-9.065436e-01	 3.588923e-01	 2.625000e+00
-9.065436e-01	 3.588923e-01	 1.125000e+00
-9.065436e-01	 3.588923e-01	 0
-9.065436e-01	 3.588923e-01	 3.750000e-01
-9.065436e-01	 3.588923e-01	 3
-9.065436e-01	 -3.588923e-01	 7.500000e-01
-9.065436e-01	 -3.588923e-01	 1.875000e+00
-9.065436e-01	 3.588923e-01	 1.875000e+00
-9.065436e-01	 3.588923e-01	 1.500000e+00
-9.065436e-01	 -3.588923e-01	 2.250000e+00
-9.065436e-01	 3.588923e-01	 7.500000e-01
-9.065436e-01	 3.588923e-01	 2.250000e+00
-8.949212e-01	 3.542912e-01	 1.500000e+00
-8.949212e-01	 -3.542912e-01	 1.500000e+00
-8.949212e-01	 -3.542912e-01	 0
-8.949212e-01	 -3.542912e-01	 3.000000e+00
-8.949212e-01	 3.542912e-01	 0
-8.949212e-01	 3.542912e-01	 3.000000e+00
-8.949212e-01	 -3.542912e-01	 2.250000e+00
-8.949212e-01	 -3.542912e-01	 7.500000e-01
-8.949212e-01	 3.542912e-01	 2.250000e+00
-8.949212e-01	 3.542912e-01	 7.500000e-01
-8.832989e-01	 -3.496900e-01	 1.125000e+00
-8.832989e-01	 -3.496900e-01	 1.875000e+00
-8.832989e-01	 -3.496900e-01	 2.625000e+00
-8.832989e-01	 -3.496900e-01	 2.250000e+00
-8.832989e-01	 3.496900e-01	 1.125000e+00
-8.832989e-01	 -3.496900e-01	 0
-8.832989e-01	 -3.496900e-01	 3.000000e+00
-8.832989e-01	 -3.496900e-01	 3.750000e-01
-8.832989e-01	 -3.496900e-01	 7.500000e-01
-8.832989e-01	 3.496900e-01	 3.750000e-01
-8.832989e-01	 3.496900e-01	 7.500000e-01
-8.832989e-01	 3.496900e-01	 2.250000e+00
-8.832989e-01	 3.496900e-01	 2.625000e+00
-8.832989e-01	 3.496900e-01	 0
-8.832989e-01	 3.496900e-01	 1.875000e+00
-8.832989e-01	 3.496900e-01	 3.000000e+00
-8.832989e-01	 -3.496900e-01	 1.500000e+00
-8.832989e-01	 3.496900e-01	 1.500000e+00
-8.369955e-01	 -5.472098e-01	 0
-8.369955e-01	 -5.472098e-01	 7.500000e-01
-8.369955e-01	 -5.472098e-01	 1.500000e+00
-8.369955e-01	 -5.472098e-01	 2.250000e+00
-8.369955e-01	 -5.472098e-01	 3
-8.369955e-01	 5.472098e-01	 0
-8.369955e-01	 5.472098e-01	 7.500000e-01
-8.369955e-01	 5.472098e-01	 1.500000e+00
-8.369955e-01	 5.472098e-01	 2.250000e+00
-8.369955e-01	 5.472098e-01	 3
-8.160706e-01	 -5.335295e-01	 7.500000e-01
-8.160706e-01	 5.335295e-01	 7.500000e-01
-8.160706e-01	 -5.335295e-01	 1.500000e+00
-8.160706e-01	 -5.335295e-01	 2.250000e+00
-8.160706e-01	 5.335295e-01	 1.500000e+00
-8.160706e-01	 5.335295e-01	 2.250000e+00
-8.160706e-01	 -5.335295e-01	 0
-8.160706e-01	 -5.335295e-01	 3.000000e+00
-8.160706e-01	 5.335295e-01	 0
-8.160706e-01	 5.335295e-01	 3.000000e+00
-7.951457e-01	 -5.198493e-01	 7.500000e-01
-7.951457e-01	 5.198493e-01	 7.500000e-01
-7.951457e-01	 -5.198493e-01	 0
-7.951457e-01	 -5.198493e-01	 1.500000e+00
-7.951457e-01	 -5.198493e-01	 2.250000e+00
-7.951457e-01	 -5.198493e-01	 3
-7.951457e-01	 5.198493e-01	 0
-7.951457e-01	 5.198493e-01	 1.500000e+00
-7.951457e-01	 5.198493e-01	 2.250000e+00
-7.951457e-01	 5.198493e-01	 3
-7.071068e-01	 -7.071068e-01	 0
-7.071068e-01	 -7.071068e-01	 3.750000e-01
-7.071068e-01	 -7.071068e-01	 7.500000e-01
-7.071068e-01	 -7.071068e-01	 1.125000e+00
-7.071068e-01	 -7.071068e-01	 1.500000e+00
-7.071068e-01	 -7.071068e-01	 1.875000e+00
-7.071068e-01	 -7.071068e-01	 2.250000e+00
-7.071068e-01	 -7.071068e-01	 2.625000e+00
-7.071068e-01	 -7.071068e-01	 3.000000e+00
-7.071068e-01	 7.071068e-01	 0
-7.071068e-01	 7.071068e-01	 3.750000e-01
-7.071068e-01	 7.071068e-01	 7.500000e-01
-7.071068e-01	 7.071068e-01	 1.125000e+00
-7.071068e-01	 7.071068e-01	 1.500000e+00
-7.071068e-01	 7.071068e-01	 1.875000e+00
-7.071068e-01	 7.071068e-01	 2.250000e+00
-7.071068e-01	 7.071068e-01	 2.625000e+00
-7.071068e-01	 7.071068e-01	 3.000000e+00
-6.982679e-01	 -6.982679e-01	 7.500000e-01
-6.982679e-01	 6.982679e-01	 7.500000e-01
-6.982679e-01	 -6.982679e-01	 0
-6.982679e-01	 -6.982679e-01	 2.250000e+00
-6.982679e-01	 -6.982679e-01	 3.000000e+00
-6.982679e-01	 6.982679e-01	 0
-6.982679e-01	 6.982679e-01	 2.250000e+00
-6.982679e-01	 6.982679e-01	 3.000000e+00
-6.982679e-01	 -6.982679e-01	 1.500000e+00
-6.982679e-01	 6.982679e-01	 1.500000e+00
-6.894291e-01	 -6.894291e-01	 3.750000e-01
-6.894291e-01	 -6.894291e-01	 2.625000e+00
-6.894291e-01	 -6.894291e-01	 0
-6.894291e-01	 -6.894291e-01	 1.500000e+00
-6.894291e-01	 -6.894291e-01	 2.250000e+00
-6.894291e-01	 -6.894291e-01	 3.000000e+00
-6.894291e-01	 6.894291e-01	 3.750000e-01
-6.894291e-01	 6.894291e-01	 2.625000e+00
-6.894291e-01	 -6.894291e-01	 1.875000e+00
-6.894291e-01	 6.894291e-01	 1.875000e+00
-6.894291e-01	 -6.894291e-01	 7.500000e-01
-6.894291e-01	 -6.894291e-01	 1.125000e+00
-6.894291e-01	 6.894291e-01	 0
-6.894291e-01	 6.894291e-01	 1.500000e+00
-6.894291e-01	 6.894291e-01	 2.250000e+00
-6.894291e-01	 6.894291e-01	 3.000000e+00
-6.894291e-01	 6.894291e-01	 7.500000e-01
-6.894291e-01	 6.894291e-01	 1.125000e+00
-6.805903e-01	 6.805903e-01	 7.500000e-01
-6.805903e-01	 -6.805903e-01	 7.500000e-01
-6.805903e-01	 -6.805903e-01	 0
-6.805903e-01	 -6.805903e-01	 1.500000e+00
-6.805903e-01	 -6.805903e-01	 3.000000e+00
-6.805903e-01	 6.805903e-01	 0
-6.805903e-01	 6.805903e-01	 1.500000e+00
-6.805903e-01	 6.805903e-01	 3.000000e+00
-6.805903e-01	 6.805903e-01	 2.250000e+00
-6.805903e-01	 -6.805903e-01	 2.250000e+00
-6.717514e-01	 -6.717514e-01	 2.625000e+00
-6.717514e-01	 6.717514e-01	 2.625000e+00
-6.717514e-01	 -6.717514e-01	 0
-6.717514e-01	 -6.717514e-01	 3.750000e-01
-6.717514e-01	 -6.717514e-01	 7.500000e-01
-6.717514e-01	 -6.717514e-01	 1.125000e+00
-6.717514e-01	 -6.717514e-01	 1.875000e+00
-6.717514e-01	 -6.717514e-01	 3.000000e+00
-6.717514e-01	 -6.717514e-01	 2.250000e+00
-6.717514e-01	 6.717514e-01	 1.500000e+00
-6.717514e-01	 6.717514e-01	 0
-6.717514e-01	 6.717514e-01	 3.750000e-01
-6.717514e-01	 6.717514e-01	 7.500000e-01
-6.717514e-01	 6.717514e-01	 1.125000e+00
-6.717514e-01	 6.717514e-01	 1.875000e+00
-6.717514e-01	 6.717514e-01	 3.000000e+00
-6.717514e-01	 -6.717514e-01	 1.500000e+00
-6.717514e-01	 6.717514e-01	 2.250000e+00
-5.472098e-01	 -8.369955e-01	 0
-5.472098e-01	 -8.369955e-01	 7.500000e-01
-5.472098e-01	 -8.369955e-01	 1.500000e+00
-5.472098e-01	 -8.369955e-01	 2.250000e+00
-5.472098e-01	 -8.369955e-01	 3
-5.472098e-01	 8.369955e-01	 0
-5.472098e-01	 8.369955e-01	 7.500000e-01
-5.472098e-01	 8.369955e-01	 1.500000e+00
-5.472098e-01	 8.369955e-01	 2.250000e+00
-5.472098e-01	 8.369955e-01	 3
-5.335295e-01	 -8.160706e-01	 1.500000e+00
-5.335295e-01	 -8.160706e-01	 2.250000e+00
-5.335295e-01	 8.160706e-01	 0
-5.335295e-01	 8.160706e-01	 3.000000e+00
[...]
POINT_DATA 832
VECTORS displacement float
0	 0	 -6.159858e-03
-2.822349e-02	 3.006290e-11	 -5.641298e-03
-5.152254e-02	 5.827995e-11	 -4.355677e-03
-6.813753e-02	 7.837352e-11	 -2.336702e-03
-7.286387e-02	 8.639311e-11	 -8.714985e-12
-6.813753e-02	 7.903024e-11	 2.336702e-03
-5.152254e-02	 5.834183e-11	 4.355677e-03
-2.822349e-02	 3.055908e-11	 5.641298e-03
0	 0	 6.159858e-03
0	 0	 -5.178235e-03
-7.307521e-02	 1.043082e-10	 -7.860937e-12
0	 0	 5.178235e-03
-5.167197e-02	 7.267514e-11	 3.661565e-03
-5.167197e-02	 6.824474e-11	 -3.661565e-03
-3.932522e-02	 -1.673588e-03	 -3.376417e-03
0	 0	 -4.774974e-03
-5.561427e-02	 -2.366811e-03	 -4.478770e-12
0	 0	 4.774974e-03
-3.932522e-02	 1.673588e-03	 3.376417e-03
0	 0	 -4.774974e-03
-5.561427e-02	 2.366811e-03	 -1.109732e-11
0	 0	 4.774974e-03
-3.932522e-02	 1.673588e-03	 -3.376417e-03
-3.932522e-02	 -1.673588e-03	 3.376417e-03
-5.174922e-02	 7.812004e-11	 -2.973359e-03
-6.836544e-02	 1.078862e-10	 -1.615383e-03
0	 0	 -4.204965e-03
-2.831789e-02	 3.986844e-11	 -3.899879e-03
-6.836544e-02	 1.143097e-10	 1.615383e-03
-2.831789e-02	 4.603665e-11	 3.899879e-03
0	 0	 4.204965e-03
-7.318444e-02	 1.220454e-10	 -7.017497e-12
-5.174922e-02	 8.684514e-11	 2.973359e-03
-7.326126e-02	 1.396307e-10	 -6.172611e-12
-5.180353e-02	 1.009028e-10	 2.283401e-03
0	 0	 -3.229216e-03
-5.180353e-02	 8.791152e-11	 -2.283401e-03
0	 0	 3.229216e-03
0	 0	 -3.312517e-03
0	 0	 3.312517e-03
-5.652424e-02	 2.137051e-03	 -4.552160e-12
0	 0	 -3.312517e-03
0	 0	 3.312517e-03
-5.652424e-02	 -2.137051e-03	 -8.520543e-12
-3.996867e-02	 -1.511123e-03	 -2.342303e-03
-3.996867e-02	 1.511123e-03	 -2.342303e-03
-3.996867e-02	 1.511123e-03	 2.342303e-03
-3.996867e-02	 -1.511123e-03	 2.342303e-03
0	 0	 -2.245168e-03
-2.829845e-02	 4.959396e-11	 -2.153056e-03
-6.831851e-02	 1.371879e-10	 -8.918249e-04
-7.321592e-02	 1.574020e-10	 -5.315591e-12
-6.831851e-02	 1.493297e-10	 8.918249e-04
-5.177147e-02	 1.151063e-10	 1.587574e-03
-2.829845e-02	 6.139978e-11	 2.153056e-03
0	 0	 2.245168e-03
-5.177147e-02	 9.779129e-11	 -1.587574e-03
-5.717090e-02	 6.734234e-03	 -4.624545e-12
0	 0	 -1.853402e-03
0	 0	 1.853402e-03
-4.042593e-02	 -4.761822e-03	 1.310553e-03
0	 0	 -1.853402e-03
-5.717090e-02	 -6.734233e-03	 -5.944305e-12
0	 0	 1.853402e-03
-4.042593e-02	 4.761822e-03	 -1.310553e-03
-4.042593e-02	 4.761822e-03	 1.310553e-03
-4.042593e-02	 -4.761822e-03	 -1.310553e-03
-6.197208e-03	 8.422760e-03	 -1.105212e-04
0	 0	 -3.057624e-04
-4.739150e-03	 6.487058e-03	 -2.162067e-04
-6.702170e-03	 9.174086e-03	 -7.696951e-13
-6.197208e-03	 8.422760e-03	 1.105212e-04
-4.739150e-03	 6.487058e-03	 2.162066e-04
-2.566968e-03	 3.488822e-03	 2.668219e-04
0	 0	 3.057624e-04
-2.566968e-03	 3.488822e-03	 -2.668219e-04
-2.566968e-03	 -3.488821e-03	 -2.668219e-04
-4.739150e-03	 -6.487058e-03	 2.162067e-04
-2.566968e-03	 -3.488821e-03	 2.668219e-04
0	 0	 -3.057624e-04
-4.739150e-03	 -6.487058e-03	 -2.162067e-04
-6.702170e-03	 -9.174085e-03	 -9.051725e-12
-6.197209e-03	 -8.422760e-03	 1.105213e-04
0	 0	 3.057624e-04
-6.197209e-03	 -8.422760e-03	 -1.105213e-04
-5.773794e-03	 -9.120746e-03	 -1.874140e-04
0	 0	 -2.650434e-04
-5.773794e-03	 9.120746e-03	 -1.874140e-04
-5.773794e-03	 9.120746e-03	 1.874140e-04
0	 0	 2.650434e-04
0	 0	 -2.650435e-04
-5.773795e-03	 -9.120746e-03	 1.874140e-04
0	 0	 2.650435e-04
-8.165378e-03	 1.289868e-02	 -1.560808e-12
-8.165379e-03	 -1.289868e-02	 -8.153393e-12
-8.878392e-03	 1.523457e-02	 -8.315994e-05
-3.677550e-03	 6.310364e-03	 2.007658e-04
0	 0	 -2.238799e-04
-3.677550e-03	 6.310364e-03	 -2.007658e-04
-9.619473e-03	 1.658978e-02	 -2.348985e-12
0	 0	 2.238799e-04
-3.677550e-03	 -6.310364e-03	 2.007659e-04
-8.878392e-03	 -1.523457e-02	 -8.315995e-05
0	 0	 -2.238800e-04
-3.677550e-03	 -6.310364e-03	 -2.007659e-04
0	 0	 2.238800e-04
-6.801995e-03	 1.173075e-02	 -1.583070e-04
-8.878392e-03	 1.523457e-02	 8.315993e-05
-8.878392e-03	 -1.523457e-02	 8.315994e-05
-9.619474e-03	 -1.658978e-02	 -7.267812e-12
-6.801995e-03	 1.173075e-02	 1.583070e-04
-6.801995e-03	 -1.173075e-02	 -1.583070e-04
-6.801995e-03	 -1.173075e-02	 1.583070e-04
-1.106257e-02	 -2.024606e-02	 -6.379731e-12
-1.106257e-02	 2.024606e-02	 -3.136764e-12
0	 0	 -1.819484e-04
0	 0	 1.819484e-04
0	 0	 -1.819484e-04
0	 0	 1.819484e-04
-7.822420e-03	 1.431613e-02	 1.286569e-04
-7.822420e-03	 1.431613e-02	 -1.286569e-04
-7.822420e-03	 -1.431613e-02	 1.286569e-04
-7.822420e-03	 -1.431613e-02	 -1.286569e-04
-1.154784e-02	 2.198675e-02	 -5.504539e-05
-1.154784e-02	 2.198675e-02	 5.504539e-05
-4.783270e-03	 9.107209e-03	 1.328913e-04
-8.855018e-03	 1.692463e-02	 9.907069e-05
-1.154784e-02	 -2.198675e-02	 -5.504540e-05
0	 0	 -1.401071e-04
0	 0	 1.401071e-04
-4.783270e-03	 9.107209e-03	 -1.328913e-04
-8.855018e-03	 1.692463e-02	 -9.907070e-05
-4.783270e-03	 -9.107208e-03	 -1.328914e-04
-8.855018e-03	 -1.692463e-02	 -9.907072e-05
-8.855018e-03	 -1.692463e-02	 9.907071e-05
-4.783270e-03	 -9.107209e-03	 1.328913e-04
0	 0	 -1.401071e-04
-1.154784e-02	 -2.198675e-02	 5.504539e-05
0	 0	 1.401071e-04
-1.252289e-02	 2.393504e-02	 -3.929503e-12
-1.252289e-02	 -2.393504e-02	 -5.477170e-12
0	 0	 4.368476e-03
2.651790e-02	 2.460966e-02	 3.088979e-03
3.750197e-02	 3.480332e-02	 1.002463e-12
2.651790e-02	 2.460966e-02	 -3.088979e-03
0	 0	 -4.368476e-03
0	 0	 4.368476e-03
2.651790e-02	 -2.460966e-02	 3.088979e-03
3.750197e-02	 -3.480332e-02	 -4.845902e-12
2.651790e-02	 -2.460966e-02	 -3.088979e-03
0	 0	 -4.368476e-03
2.484541e-02	 2.723029e-02	 2.143949e-03
2.484541e-02	 -2.723029e-02	 2.143949e-03
3.513671e-02	 3.850945e-02	 -1.366251e-12
2.484541e-02	 2.723029e-02	 -2.143949e-03
3.513671e-02	 -3.850945e-02	 -4.966267e-12
2.484541e-02	 -2.723029e-02	 -2.143949e-03
0	 0	 3.032002e-03
0	 0	 -3.032002e-03
0	 0	 3.032002e-03
0	 0	 -3.032002e-03
2.300786e-02	 2.977422e-02	 1.200204e-03
2.300786e-02	 -2.977422e-02	 1.200204e-03
0	 0	 1.697344e-03
3.253803e-02	 4.210711e-02	 -3.737165e-12
2.300786e-02	 2.977422e-02	 -1.200204e-03
0	 0	 -1.697344e-03
0	 0	 1.697344e-03
3.253803e-02	 -4.210711e-02	 -5.092056e-12
2.300786e-02	 -2.977422e-02	 -1.200204e-03
0	 0	 -1.697344e-03
0	 0	 5.987892e-03
1.906827e-02	 1.906827e-02	 5.467456e-03
3.475625e-02	 3.475625e-02	 4.234079e-03
4.603489e-02	 4.603489e-02	 2.264694e-03
4.915276e-02	 4.915276e-02	 -8.939897e-13
4.603489e-02	 4.603489e-02	 -2.264694e-03
3.475625e-02	 3.475625e-02	 -4.234079e-03
1.906827e-02	 1.906827e-02	 -5.467456e-03
0	 0	 -5.987892e-03
0	 0	 5.987892e-03
1.906827e-02	 -1.906827e-02	 5.467456e-03
3.475625e-02	 -3.475625e-02	 4.234079e-03
4.603489e-02	 -4.603489e-02	 2.264694e-03
4.915276e-02	 -4.915276e-02	 -8.805321e-15
4.603489e-02	 -4.603489e-02	 -2.264694e-03
3.475625e-02	 -3.475625e-02	 -4.234079e-03
1.906827e-02	 -1.906827e-02	 -5.467456e-03
0	 0	 -5.987892e-03
3.485387e-02	 3.485387e-02	 3.568066e-03
3.485387e-02	 -3.485387e-02	 3.568066e-03
0	 0	 5.046007e-03
3.485387e-02	 3.485387e-02	 -3.568066e-03
0	 0	 -5.046007e-03
0	 0	 5.046007e-03
3.485387e-02	 -3.485387e-02	 -3.568066e-03
0	 0	 -5.046007e-03
4.929082e-02	 4.929082e-02	 -1.962562e-12
4.929082e-02	 -4.929082e-02	 -1.235044e-12
1.913079e-02	 1.913079e-02	 3.806165e-03
1.913079e-02	 1.913079e-02	 -3.806165e-03
0	 0	 4.110758e-03
4.936955e-02	 4.936955e-02	 -3.024523e-12
3.490955e-02	 3.490955e-02	 -2.906745e-03
0	 0	 -4.110758e-03
1.913079e-02	 -1.913079e-02	 3.806165e-03
1.913079e-02	 -1.913079e-02	 -3.806165e-03
4.618581e-02	 4.618581e-02	 -1.576565e-03
4.618581e-02	 -4.618581e-02	 -1.576565e-03
3.490955e-02	 3.490955e-02	 2.906745e-03
4.618581e-02	 4.618581e-02	 1.576565e-03
0	 0	 4.110758e-03
4.936955e-02	 -4.936955e-02	 -2.455135e-12
3.490955e-02	 -3.490955e-02	 -2.906745e-03
0	 0	 -4.110758e-03
3.490955e-02	 -3.490955e-02	 2.906745e-03
4.618581e-02	 -4.618581e-02	 1.576565e-03
3.495598e-02	 -3.495598e-02	 2.244552e-03
3.495598e-02	 3.495598e-02	 2.244552e-03
0	 0	 3.174276e-03
4.943522e-02	 4.943522e-02	 -4.087815e-12
0	 0	 -3.174276e-03
0	 0	 3.174276e-03
4.943522e-02	 -4.943522e-02	 -3.677954e-12
0	 0	 -3.174276e-03
3.495598e-02	 -3.495598e-02	 -2.244552e-03
3.495598e-02	 3.495598e-02	 -2.244552e-03
1.912994e-02	 1.912994e-02	 -2.140736e-03
1.912994e-02	 -1.912994e-02	 -2.140736e-03
0	 0	 2.230490e-03
1.912994e-02	 1.912994e-02	 2.140736e-03
3.495098e-02	 3.495098e-02	 1.577195e-03
4.618376e-02	 4.618376e-02	 8.867221e-04
4.618376e-02	 4.618376e-02	 -8.867221e-04
0	 0	 -2.230490e-03
3.495098e-02	 3.495098e-02	 -1.577195e-03
4.942815e-02	 -4.942815e-02	 -4.909729e-12
0	 0	 2.230490e-03
1.912994e-02	 -1.912994e-02	 2.140736e-03
3.495098e-02	 -3.495098e-02	 1.577195e-03
4.618376e-02	 -4.618376e-02	 8.867221e-04
4.618376e-02	 -4.618376e-02	 -8.867221e-04
0	 0	 -2.230490e-03
4.942815e-02	 4.942815e-02	 -5.158043e-12
3.495098e-02	 -3.495098e-02	 -1.577195e-03
0	 0	 4.368476e-03
2.460966e-02	 2.651790e-02	 3.088979e-03
3.480332e-02	 3.750197e-02	 -4.523167e-12
2.460966e-02	 2.651790e-02	 -3.088979e-03
0	 0	 -4.368476e-03
0	 0	 4.368476e-03
2.460966e-02	 -2.651790e-02	 3.088979e-03
3.480332e-02	 -3.750197e-02	 3.001817e-12
2.460966e-02	 -2.651790e-02	 -3.088979e-03
0	 0	 -4.368476e-03
3.850945e-02	 3.513671e-02	 -5.287818e-12
2.723029e-02	 2.484541e-02	 -2.143949e-03
0	 0	 3.032002e-03
0	 0	 -3.032002e-03
3.850945e-02	 -3.513671e-02	 -9.229448e-13
2.723029e-02	 -2.484541e-02	 -2.143949e-03
2.723029e-02	 2.484541e-02	 2.143949e-03
0	 0	 3.032002e-03
0	 0	 -3.032002e-03
2.723029e-02	 -2.484541e-02	 2.143949e-03
2.977422e-02	 -2.300786e-02	 1.200204e-03
2.977422e-02	 2.300786e-02	 1.200204e-03
0	 0	 1.697344e-03
4.210711e-02	 3.253803e-02	 -6.044844e-12
2.977422e-02	 2.300786e-02	 -1.200204e-03
0	 0	 -1.697344e-03
0	 0	 1.697344e-03
4.210711e-02	 -3.253803e-02	 -4.850181e-12
2.977422e-02	 -2.300786e-02	 -1.200204e-03
0	 0	 -1.697344e-03
8.422760e-03	 -6.197209e-03	 -1.105213e-04
8.422760e-03	 6.197209e-03	 -1.105213e-04
0	 0	 -3.057625e-04
6.487058e-03	 -4.739150e-03	 -2.162067e-04
9.174085e-03	 -6.702170e-03	 -1.022774e-11
8.422760e-03	 -6.197209e-03	 1.105213e-04
0	 0	 3.057625e-04
0	 0	 -3.057624e-04
6.487058e-03	 4.739150e-03	 -2.162067e-04
9.174086e-03	 6.702170e-03	 1.260576e-12
8.422760e-03	 6.197208e-03	 1.105212e-04
6.487058e-03	 4.739150e-03	 2.162067e-04
3.488822e-03	 2.566968e-03	 2.668219e-04
0	 0	 3.057624e-04
3.488821e-03	 -2.566968e-03	 -2.668219e-04
6.487058e-03	 -4.739150e-03	 2.162067e-04
3.488821e-03	 -2.566968e-03	 2.668219e-04
3.488822e-03	 2.566968e-03	 -2.668219e-04
1.289868e-02	 -8.165379e-03	 -9.476162e-12
1.289868e-02	 8.165378e-03	 -4.428187e-13
9.120746e-03	 -5.773795e-03	 -1.874141e-04
0	 0	 -2.650435e-04
9.120746e-03	 -5.773795e-03	 1.874140e-04
0	 0	 2.650435e-04
0	 0	 -2.650435e-04
9.120746e-03	 5.773794e-03	 -1.874140e-04
9.120746e-03	 5.773794e-03	 1.874140e-04
0	 0	 2.650435e-04
1.173075e-02	 -6.801995e-03	 1.583070e-04
1.173075e-02	 6.801995e-03	 1.583070e-04
1.523457e-02	 8.878392e-03	 -8.315995e-05
6.310364e-03	 3.677550e-03	 2.007659e-04
0	 0	 -2.238800e-04
6.310364e-03	 -3.677550e-03	 -2.007659e-04
0	 0	 2.238800e-04
1.658978e-02	 -9.619474e-03	 -8.723787e-12
0	 0	 -2.238800e-04
6.310364e-03	 3.677550e-03	 -2.007659e-04
1.658978e-02	 9.619474e-03	 -2.136945e-12
0	 0	 2.238799e-04
1.523457e-02	 -8.878392e-03	 -8.315996e-05
1.523457e-02	 -8.878392e-03	 8.315994e-05
1.173075e-02	 -6.801995e-03	 -1.583071e-04
1.173075e-02	 6.801995e-03	 -1.583070e-04
1.523457e-02	 8.878392e-03	 8.315994e-05
6.310364e-03	 -3.677550e-03	 2.007659e-04
2.024606e-02	 -1.106257e-02	 -7.970101e-12
1.431613e-02	 -7.822421e-03	 1.286569e-04
1.431613e-02	 7.822420e-03	 1.286569e-04
0	 0	 -1.819484e-04
0	 0	 1.819484e-04
2.024606e-02	 1.106257e-02	 -3.832781e-12
0	 0	 -1.819484e-04
0	 0	 1.819484e-04
1.431613e-02	 -7.822420e-03	 -1.286570e-04
1.431613e-02	 7.822420e-03	 -1.286570e-04
2.198675e-02	 -1.154784e-02	 -5.504541e-05
0	 0	 -1.401072e-04
2.198675e-02	 -1.154784e-02	 5.504539e-05
0	 0	 1.401071e-04
2.393504e-02	 -1.252289e-02	 -7.211633e-12
0	 0	 -1.401072e-04
0	 0	 1.401071e-04
2.198675e-02	 1.154784e-02	 -5.504541e-05
2.198675e-02	 1.154784e-02	 5.504540e-05
9.107209e-03	 4.783270e-03	 1.328913e-04
9.107208e-03	 -4.783270e-03	 -1.328914e-04
1.692463e-02	 -8.855019e-03	 -9.907072e-05
1.692463e-02	 -8.855019e-03	 9.907071e-05
9.107209e-03	 -4.783271e-03	 1.328914e-04
2.393504e-02	 1.252289e-02	 -5.543249e-12
9.107209e-03	 4.783270e-03	 -1.328914e-04
1.692463e-02	 8.855018e-03	 9.907071e-05
1.692463e-02	 8.855018e-03	 -9.907072e-05
-1.673588e-03	 -3.932522e-02	 -3.376417e-03
-1.673588e-03	 3.932522e-02	 -3.376417e-03
0	 0	 -4.774974e-03
-2.366811e-03	 -5.561427e-02	 -1.617036e-11
0	 0	 4.774974e-03
0	 0	 -4.774974e-03
-2.366811e-03	 5.561427e-02	 -2.325676e-12
0	 0	 4.774974e-03
-1.673588e-03	 -3.932522e-02	 3.376417e-03
-1.673588e-03	 3.932522e-02	 3.376417e-03
1.511123e-03	 -3.996867e-02	 -2.342303e-03
0	 0	 -3.312517e-03
0	 0	 3.312517e-03
1.511123e-03	 3.996867e-02	 -2.342303e-03
1.511123e-03	 3.996867e-02	 2.342303e-03
0	 0	 -3.312517e-03
0	 0	 3.312517e-03
1.511123e-03	 -3.996867e-02	 2.342303e-03
2.137051e-03	 5.652424e-02	 -4.291986e-12
2.137051e-03	 -5.652424e-02	 -1.243341e-11
6.734234e-03	 5.717090e-02	 -6.261363e-12
0	 0	 -1.853402e-03
6.734233e-03	 -5.717090e-02	 -8.687482e-12
0	 0	 1.853402e-03
0	 0	 -1.853402e-03
0	 0	 1.853402e-03
4.761822e-03	 -4.042593e-02	 1.310553e-03
4.761822e-03	 -4.042593e-02	 -1.310553e-03
4.761822e-03	 4.042593e-02	 -1.310553e-03
4.761822e-03	 4.042593e-02	 1.310553e-03
0	 0	 -6.159858e-03
-2.124935e-11	 -2.822349e-02	 -5.641298e-03
-3.729850e-11	 -5.152254e-02	 -4.355677e-03
-4.709644e-11	 -6.813753e-02	 -2.336702e-03
-5.161996e-11	 -7.286387e-02	 -1.922614e-11
-4.881844e-11	 -6.813753e-02	 2.336702e-03
-3.960114e-11	 -5.152254e-02	 4.355677e-03
-2.244993e-11	 -2.822349e-02	 5.641298e-03
0	 0	 6.159858e-03
0	 0	 -5.178235e-03
-7.211699e-11	 -7.307521e-02	 -1.670963e-11
0	 0	 5.178235e-03
-5.283542e-11	 -5.167197e-02	 3.661565e-03
-5.243605e-11	 -5.167197e-02	 -3.661565e-03
-6.741670e-11	 -5.174922e-02	 -2.973359e-03
-8.551589e-11	 -6.836544e-02	 -1.615383e-03
0	 0	 -4.204965e-03
-3.804882e-11	 -2.831789e-02	 -3.899879e-03
-8.461025e-11	 -6.836544e-02	 1.615383e-03
-3.652643e-11	 -2.831789e-02	 3.899879e-03
0	 0	 4.204965e-03
-9.239608e-11	 -7.318444e-02	 -1.420680e-11
-6.594134e-11	 -5.174922e-02	 2.973359e-03
-1.125354e-10	 -7.326126e-02	 -1.169689e-11
-7.894725e-11	 -5.180353e-02	 2.283401e-03
0	 0	 -3.229216e-03
-8.227398e-11	 -5.180353e-02	 -2.283401e-03
0	 0	 3.229216e-03
0	 0	 -2.245168e-03
-5.473127e-11	 -2.829845e-02	 -2.153056e-03
-1.236686e-10	 -6.831851e-02	 -8.918250e-04
-1.328638e-10	 -7.321592e-02	 -9.164926e-12
-1.201462e-10	 -6.831851e-02	 8.918249e-04
-9.207640e-11	 -5.177147e-02	 1.587574e-03
-5.050863e-11	 -2.829845e-02	 2.153056e-03
0	 0	 2.245168e-03
-9.727999e-11	 -5.177147e-02	 -1.587574e-03
9.594223e-11	 5.177147e-02	 -1.587574e-03
0	 0	 -2.245168e-03
4.396656e-11	 2.829845e-02	 -2.153056e-03
1.488494e-10	 6.831851e-02	 -8.918250e-04
1.868437e-10	 7.321592e-02	 -7.956919e-12
1.901020e-10	 6.831851e-02	 8.918249e-04
1.556585e-10	 5.177147e-02	 1.587574e-03
8.794474e-11	 2.829845e-02	 2.153056e-03
0	 0	 2.245168e-03
0	 0	 -3.229216e-03
8.548176e-11	 5.180353e-02	 -2.283401e-03
0	 0	 3.229216e-03
1.684388e-10	 7.326126e-02	 -7.736162e-12
1.418787e-10	 5.180353e-02	 2.283401e-03
1.502128e-10	 7.318444e-02	 -7.511803e-12
1.282282e-10	 5.174922e-02	 2.973359e-03
0	 0	 -4.204965e-03
3.410093e-11	 2.831789e-02	 -3.899880e-03
1.546653e-10	 6.836544e-02	 1.615383e-03
7.267346e-11	 2.831789e-02	 3.899880e-03
0	 0	 4.204965e-03
7.511003e-11	 5.174922e-02	 -2.973359e-03
1.182076e-10	 6.836544e-02	 -1.615383e-03
6.466883e-11	 5.167197e-02	 -3.661565e-03
1.144474e-10	 5.167197e-02	 3.661565e-03
0	 0	 -5.178235e-03
1.318276e-10	 7.307521e-02	 -7.287272e-12
0	 0	 5.178235e-03
0	 0	 -6.159858e-03
2.414985e-11	 2.822349e-02	 -5.641298e-03
5.410704e-11	 5.152254e-02	 -4.355677e-03
8.734539e-11	 6.813753e-02	 -2.336702e-03
1.132739e-10	 7.286387e-02	 -7.066331e-12
1.189751e-10	 6.813753e-02	 2.336702e-03
1.005692e-10	 5.152254e-02	 4.355677e-03
5.730242e-11	 2.822349e-02	 5.641298e-03
0	 0	 6.159858e-03
-4.761822e-03	 -4.042593e-02	 -1.310553e-03
-4.761822e-03	 -4.042593e-02	 1.310553e-03
-4.761822e-03	 4.042593e-02	 -1.310553e-03
-4.761822e-03	 4.042593e-02	 1.310553e-03
0	 0	 -1.853402e-03
0	 0	 1.853402e-03
0	 0	 -1.853402e-03
-6.734233e-03	 5.717090e-02	 -9.632741e-12
0	 0	 1.853402e-03
-6.734234e-03	 -5.717090e-02	 -9.572778e-12
-2.137051e-03	 5.652424e-02	 -1.086503e-11
-2.137051e-03	 -5.652424e-02	 -1.458620e-11
-1.511123e-03	 3.996867e-02	 2.342303e-03
0	 0	 -3.312517e-03
0	 0	 3.312517e-03
-1.511123e-03	 -3.996867e-02	 -2.342303e-03
-1.511123e-03	 -3.996867e-02	 2.342303e-03
0	 0	 -3.312517e-03
0	 0	 3.312517e-03
-1.511123e-03	 3.996867e-02	 -2.342303e-03
1.673588e-03	 -3.932522e-02	 3.376417e-03
1.673588e-03	 3.932522e-02	 3.376417e-03
0	 0	 -4.774974e-03
2.366811e-03	 -5.561427e-02	 -1.959831e-11
0	 0	 4.774974e-03
0	 0	 -4.774974e-03
2.366811e-03	 5.561427e-02	 -1.209557e-11
0	 0	 4.774974e-03
1.673588e-03	 -3.932522e-02	 -3.376417e-03
1.673588e-03	 3.932522e-02	 -3.376417e-03
-1.692463e-02	 -8.855018e-03	 -9.907071e-05
-1.692463e-02	 -8.855018e-03	 9.907069e-05
-9.107209e-03	 -4.783270e-03	 -1.328913e-04
-2.393504e-02	 -1.252289e-02	 -8.783025e-12
-9.107209e-03	 4.783270e-03	 -1.328914e-04
-1.692463e-02	 8.855019e-03	 -9.907075e-05
-1.692463e-02	 8.855019e-03	 9.907073e-05
-9.107208e-03	 4.783271e-03	 1.328914e-04
-2.198675e-02	 -1.154784e-02	 -5.504540e-05
-2.198675e-02	 -1.154784e-02	 5.504538e-05
-9.107209e-03	 -4.783270e-03	 1.328913e-04
0	 0	 -1.401071e-04
0	 0	 1.401071e-04
-2.393504e-02	 1.252289e-02	 -1.129134e-11
0	 0	 -1.401072e-04
-2.198675e-02	 1.154784e-02	 5.504540e-05
0	 0	 1.401072e-04
-2.198675e-02	 1.154784e-02	 -5.504543e-05
-1.431613e-02	 -7.822420e-03	 -1.286569e-04
-1.431613e-02	 7.822421e-03	 -1.286570e-04
0	 0	 -1.819484e-04
0	 0	 1.819484e-04
-2.024606e-02	 -1.106257e-02	 -1.042585e-11
0	 0	 -1.819484e-04
0	 0	 1.819484e-04
-1.431613e-02	 -7.822420e-03	 1.286569e-04
-1.431613e-02	 7.822421e-03	 1.286570e-04
-2.024606e-02	 1.106257e-02	 -1.260978e-11
-6.310364e-03	 3.677551e-03	 2.007659e-04
-1.173075e-02	 -6.801995e-03	 -1.583070e-04
-1.523457e-02	 -8.878392e-03	 8.315992e-05
-1.173075e-02	 6.801995e-03	 -1.583071e-04
-1.523457e-02	 8.878392e-03	 8.315995e-05
-1.523457e-02	 8.878392e-03	 -8.315998e-05
0	 0	 -2.238799e-04
-6.310364e-03	 -3.677550e-03	 -2.007658e-04
-1.658978e-02	 -9.619473e-03	 -1.205504e-11
0	 0	 2.238799e-04
-1.658978e-02	 9.619474e-03	 -1.392501e-11
0	 0	 -2.238800e-04
-6.310364e-03	 3.677550e-03	 -2.007659e-04
0	 0	 2.238800e-04
-1.523457e-02	 -8.878392e-03	 -8.315995e-05
-6.310364e-03	 -3.677550e-03	 2.007658e-04
-1.173075e-02	 -6.801995e-03	 1.583070e-04
-1.173075e-02	 6.801995e-03	 1.583071e-04
0	 0	 -2.650434e-04
-9.120746e-03	 -5.773794e-03	 -1.874140e-04
-9.120746e-03	 -5.773794e-03	 1.874140e-04
0	 0	 2.650434e-04
0	 0	 -2.650435e-04
-9.120746e-03	 5.773795e-03	 1.874141e-04
0	 0	 2.650435e-04
-9.120746e-03	 5.773795e-03	 -1.874141e-04
-1.289868e-02	 -8.165378e-03	 -1.367987e-11
-1.289868e-02	 8.165379e-03	 -1.523636e-11
-3.488822e-03	 -2.566968e-03	 -2.668219e-04
-3.488821e-03	 2.566968e-03	 -2.668220e-04
-6.487058e-03	 4.739150e-03	 2.162067e-04
-3.488821e-03	 2.566968e-03	 2.668220e-04
0	 0	 -3.057624e-04
-6.487058e-03	 -4.739150e-03	 -2.162067e-04
-9.174086e-03	 -6.702170e-03	 -1.531426e-11
-8.422760e-03	 -6.197208e-03	 1.105212e-04
-6.487058e-03	 -4.739150e-03	 2.162067e-04
-3.488822e-03	 -2.566968e-03	 2.668219e-04
0	 0	 3.057624e-04
0	 0	 -3.057625e-04
-6.487058e-03	 4.739150e-03	 -2.162067e-04
-9.174085e-03	 6.702170e-03	 -1.654817e-11
-8.422760e-03	 6.197209e-03	 1.105213e-04
0	 0	 3.057625e-04
-8.422760e-03	 -6.197208e-03	 -1.105213e-04
-8.422760e-03	 6.197209e-03	 -1.105213e-04
0	 0	 1.697344e-03
-4.210711e-02	 3.253803e-02	 -7.831998e-12
-2.977422e-02	 2.300786e-02	 -1.200204e-03
0	 0	 -1.697344e-03
0	 0	 1.697344e-03