# vtk DataFile Version 3.0
Unstructured Grid Example
ASCII
DATASET UNSTRUCTURED_GRID
POINTS 832 float
-1	 0	 0
-1	 0	 3.750000e-01
-1	 0	 7.500000e-01
-1	 0	 1.125000e+00
-1	 0	 1.500000e+00
-1	 0	 1.875000e+00
-1	 0	 2.250000e+00
-1	 0	 2.625000e+00
-1	 0	 3
-9.875000e-01	 0	 0
-9.875000e-01	 0	 1.500000e+00
-9.875000e-01	 0	 3
-9.875000e-01	 0	 2.250000e+00
-9.875000e-01	 0	 7.500000e-01
-9.833054e-01	 -1.819631e-01	 7.500000e-01
-9.833054e-01	 -1.819631e-01	 0
-9.833054e-01	 -1.819631e-01	 1.500000e+00
-9.833054e-01	 -1.819631e-01	 3.000000e+00
-9.833054e-01	 1.819631e-01	 2.250000e+00
-9.833054e-01	 1.819631e-01	 0
-9.833054e-01	 1.819631e-01	 1.500000e+00
-9.833054e-01	 1.819631e-01	 3.000000e+00
-9.833054e-01	 1.819631e-01	 7.500000e-01
-9.833054e-01	 -1.819631e-01	 2.250000e+00
-9.750000e-01	 0	 7.500000e-01
-9.750000e-01	 0	 1.125000e+00
-9.750000e-01	 0	 0
-9.750000e-01	 0	 3.750000e-01
-9.750000e-01	 0	 1.875000e+00
-9.750000e-01	 0	 2.625000e+00
-9.750000e-01	 0	 3
-9.750000e-01	 0	 1.500000e+00
-9.750000e-01	 0	 2.250000e+00
-9.625000e-01	 0	 1.500000e+00
-9.625000e-01	 0	 2.250000e+00
-9.625000e-01	 0	 0
-9.625000e-01	 0	 7.500000e-01
-9.625000e-01	 0	 3
-9.587227e-01	 -1.774140e-01	 0
-9.587227e-01	 -1.774140e-01	 3.000000e+00
-9.587227e-01	 -1.774140e-01	 1.500000e+00
-9.587227e-01	 1.774140e-01	 0
-9.587227e-01	 1.774140e-01	 3.000000e+00
-9.587227e-01	 1.774140e-01	 1.500000e+00
-9.587227e-01	 1.774140e-01	 7.500000e-01
-9.587227e-01	 -1.774140e-01	 7.500000e-01
-9.587227e-01	 -1.774140e-01	 2.250000e+00
-9.587227e-01	 1.774140e-01	 2.250000e+00
-9.500000e-01	 0	 0
-9.500000e-01	 0	 3.750000e-01
-9.500000e-01	 0	 1.125000e+00
-9.500000e-01	 0	 1.500000e+00
-9.500000e-01	 0	 1.875000e+00
-9.500000e-01	 0	 2.250000e+00
-9.500000e-01	 0	 2.625000e+00
-9.500000e-01	 0	 3
-9.500000e-01	 0	 7.500000e-01
-9.341401e-01	 -1.728649e-01	 1.500000e+00
-9.341401e-01	 -1.728649e-01	 0
-9.341401e-01	 -1.728649e-01	 3.000000e+00
-9.341401e-01	 1.728649e-01	 2.250000e+00
-9.341401e-01	 1.728649e-01	 0
-9.341401e-01	 1.728649e-01	 1.500000e+00
-9.341401e-01	 1.728649e-01	 3.000000e+00
-9.341401e-01	 -1.728649e-01	 7.500000e-01
-9.341401e-01	 -1.728649e-01	 2.250000e+00
-9.341401e-01	 1.728649e-01	 7.500000e-01
-9.297883e-01	 -3.680947e-01	 1.125000e+00
-9.297883e-01	 -3.680947e-01	 0
-9.297883e-01	 -3.680947e-01	 7.500000e-01
-9.297883e-01	 -3.680947e-01	 1.500000e+00
-9.297883e-01	 -3.680947e-01	 1.875000e+00
-9.297883e-01	 -3.680947e-01	 2.250000e+00
-9.297883e-01	 -3.680947e-01	 2.625000e+00
-9.297883e-01	 -3.680947e-01	 3.000000e+00
-9.297883e-01	 -3.680947e-01	 3.750000e-01
-9.297883e-01	 3.680947e-01	 3.750000e-01
-9.297883e-01	 3.680947e-01	 2.250000e+00
-9.297883e-01	 3.680947e-01	 2.625000e+00
-9.297883e-01	 3.680947e-01	 0
-9.297883e-01	 3.680947e-01	 7.500000e-01
-9.297883e-01	 3.680947e-01	 1.500000e+00
-9.297883e-01	 3.680947e-01	 1.875000e+00
-9.297883e-01	 3.680947e-01	 3.000000e+00
-9.297883e-01	 3.680947e-01	 1.125000e+00
-9.181659e-01	 3.634935e-01	 7.500000e-01
-9.181659e-01	 -3.634935e-01	 0
-9.181659e-01	 -3.634935e-01	 7.500000e-01
-9.181659e-01	 -3.634935e-01	 2.250000e+00
-9.181659e-01	 -3.634935e-01	 3
-9.181659e-01	 3.634935e-01	 0
-9.181659e-01	 3.634935e-01	 2.250000e+00
-9.181659e-01	 3.634935e-01	 3
-9.181659e-01	 -3.634935e-01	 1.500000e+00
-9.181659e-01	 3.634935e-01	 1.500000e+00
-9.065436e-01	 -3.588923e-01	 1.125000e+00
-9.065436e-01	 -3.588923e-01	 2.625000e+00
-9.065436e-01	 -3.588923e-01	 0
-9.065436e-01	 -3.588923e-01	 3.750000e-01
-9.065436e-01	 -3.588923e-01	 1.500000e+00
-9.065436e-01	 -3.588923e-01	 3
-9.065436e-01	 3.588923e-01	 2.625000e+00
-9.065436e-01	 3.588923e-01	 1.125000e+00
-9.065436e-01	 3.588923e-01	 0
-9.065436e-01	 3.588923e-01	 3.750000e-01
-9.065436e-01	 3.588923e-01	 3
-9.065436e-01	 -3.588923e-01	 7.500000e-01
-9.065436e-01	 -3.588923e-01	 1.875000e+00
-9.065436e-01	 3.588923e-01	 1.875000e+00
-9.065436e-01	 3.588923e-01	 1.500000e+00
-9.065436e-01	 -3.588923e-01	 2.250000e+00
-9.065436e-01	 3.588923e-01	 7.500000e-01
-9.065436e-01	 3.588923e-01	 2.250000e+00
-8.949212e-01	 3.542912e-01	 1.500000e+00
-8.949212e-01	 -3.542912e-01	 1.500000e+00
-8.949212e-01	 -3.542912e-01	 0
-8.949212e-01	 -3.542912e-01	 3.000000e+00
-8.949212e-01	 3.542912e-01	 0
-8.949212e-01	 3.542912e-01	 3.000000e+00
-8.949212e-01	 -3.542912e-01	 2.250000e+00
-8.949212e-01	 -3.542912e-01	 7.500000e-01
-8.949212e-01	 3.542912e-01	 2.250000e+00
-8.949212e-01	 3.542912e-01	 7.500000e-01
-8.832989e-01	 -3.496900e-01	 1.125000e+00
-8.832989e-01	 -3.496900e-01	 1.875000e+00
-8.832989e-01	 -3.496900e-01	 2.625000e+00
-8.832989e-01	 -3.496900e-01	 2.250000e+00
-8.832989e-01	 3.496900e-01	 1.125000e+00
-8.832989e-01	 -3.496900e-01	 0
-8.832989e-01	 -3.496900e-01	 3.000000e+00
-8.832989e-01	 -3.496900e-01	 3.750000e-01
-8.832989e-01	 -3.496900e-01	 7.500000e-01
-8.832989e-01	 3.496900e-01	 3.750000e-01
-8.832989e-01	 3.496900e-01	 7.500000e-01
-8.832989e-01	 3.496900e-01	 2.250000e+00
-8.832989e-01	 3.496900e-01	 2.625000e+00
-8.832989e-01	 3.496900e-01	 0
-8.832989e-01	 3.496900e-01	 1.875000e+00
-8.832989e-01	 3.496900e-01	 3.000000e+00
-8.832989e-01	 -3.496900e-01	 1.500000e+00
-8.832989e-01	 3.496900e-01	 1.500000e+00
-8.369955e-01	 -5.472098e-01	 0
-8.369955e-01	 -5.472098e-01	 7.500000e-01
-8.369955e-01	 -5.472098e-01	 1.500000e+00
-8.369955e-01	 -5.472098e-01	 2.250000e+00
-8.369955e-01	 -5.472098e-01	 3
-8.369955e-01	 5.472098e-01	 0
-8.369955e-01	 5.472098e-01	 7.500000e-01
-8.369955e-01	 5.472098e-01	 1.500000e+00
-8.369955e-01	 5.472098e-01	 2.250000e+00
-8.369955e-01	 5.472098e-01	 3
-8.160706e-01	 -5.335295e-01	 7.500000e-01
-8.160706e-01	 5.335295e-01	 7.500000e-01
-8.160706e-01	 -5.335295e-01	 1.500000e+00
-8.160706e-01	 -5.335295e-01	 2.250000e+00
-8.160706e-01	 5.335295e-01	 1.500000e+00
-8.160706e-01	 5.335295e-01	 2.250000e+00
-8.160706e-01	 -5.335295e-01	 0
-8.160706e-01	 -5.335295e-01	 3.000000e+00
-8.160706e-01	 5.335295e-01	 0
-8.160706e-01	 5.335295e-01	 3.000000e+00
-7.951457e-01	 -5.198493e-01	 7.500000e-01
-7.951457e-01	 5.198493e-01	 7.500000e-01
-7.951457e-01	 -5.198493e-01	 0
-7.951457e-01	 -5.198493e-01	 1.500000e+00
-7.951457e-01	 -5.198493e-01	 2.250000e+00
-7.951457e-01	 -5.198493e-01	 3
-7.951457e-01	 5.198493e-01	 0
-7.951457e-01	 5.198493e-01	 1.500000e+00
-7.951457e-01	 5.198493e-01	 2.250000e+00
-7.951457e-01	 5.198493e-01	 3
-7.071068e-01	 -7.071068e-01	 0
-7.071068e-01	 -7.071068e-01	 3.750000e-01
-7.071068e-01	 -7.071068e-01	 7.500000e-01
-7.071068e-01	 -7.071068e-01	 1.125000e+00
-7.071068e-01	 -7.071068e-01	 1.500000e+00
-7.071068e-01	 -7.071068e-01	 1.875000e+00
-7.071068e-01	 -7.071068e-01	 2.250000e+00
-7.071068e-01	 -7.071068e-01	 2.625000e+00
-7.071068e-01	 -7.071068e-01	 3.000000e+00
-7.071068e-01	 7.071068e-01	 0
-7.071068e-01	 7.071068e-01	 3.750000e-01
-7.071068e-01	 7.071068e-01	 7.500000e-01
-7.071068e-01	 7.071068e-01	 1.125000e+00
-7.071068e-01	 7.071068e-01	 1.500000e+00
-7.071068e-01	 7.071068e-01	 1.875000e+00
-7.071068e-01	 7.071068e-01	 2.250000e+00
-7.071068e-01	 7.071068e-01	 2.625000e+00
-7.071068e-01	 7.071068e-01	 3.000000e+00
-6.982679e-01	 -6.982679e-01	 7.500000e-01
-6.982679e-01	 6.982679e-01	 7.500000e-01
-6.982679e-01	 -6.982679e-01	 0
-6.982679e-01	 -6.982679e-01	 2.250000e+00
-6.982679e-01	 -6.982679e-01	 3.000000e+00
-6.982679e-01	 6.982679e-01	 0
-6.982679e-01	 6.982679e-01	 2.250000e+00
-6.982679e-01	 6.982679e-01	 3.000000e+00
-6.982679e-01	 -6.982679e-01	 1.500000e+00
-6.982679e-01	 6.982679e-01	 1.500000e+00
-6.894291e-01	 -6.894291e-01	 3.750000e-01
-6.894291e-01	 -6.894291e-01	 2.625000e+00
-6.894291e-01	 -6.894291e-01	 0
-6.894291e-01	 -6.894291e-01	 1.500000e+00
-6.894291e-01	 -6.894291e-01	 2.250000e+00
-6.894291e-01	 -6.894291e-01	 3.000000e+00
-6.894291e-01	 6.894291e-01	 3.750000e-01
-6.894291e-01	 6.894291e-01	 2.625000e+00
-6.894291e-01	 -6.894291e-01	 1.875000e+00
-6.894291e-01	 6.894291e-01	 1.875000e+00
-6.894291e-01	 -6.894291e-01	 7.500000e-01
-6.894291e-01	 -6.894291e-01	 1.125000e+00
-6.894291e-01	 6.894291e-01	 0
-6.894291e-01	 6.894291e-01	 1.500000e+00
-6.894291e-01	 6.894291e-01	 2.250000e+00
-6.894291e-01	 6.894291e-01	 3.000000e+00
-6.894291e-01	 6.894291e-01	 7.500000e-01
-6.894291e-01	 6.894291e-01	 1.125000e+00
-6.805903e-01	 6.805903e-01	 7.500000e-01
-6.805903e-01	 -6.805903e-01	 7.500000e-01
-6.805903e-01	 -6.805903e-01	 0
-6.805903e-01	 -6.805903e-01	 1.500000e+00
-6.805903e-01	 -6.805903e-01	 3.000000e+00
-6.805903e-01	 6.805903e-01	 0
-6.805903e-01	 6.805903e-01	 1.500000e+00
-6.805903e-01	 6.805903e-01	 3.000000e+00
-6.805903e-01	 6.805903e-01	 2.250000e+00
-6.805903e-01	 -6.805903e-01	 2.250000e+00
-6.717514e-01	 -6.717514e-01	 2.625000e+00
-6.717514e-01	 6.717514e-01	 2.625000e+00
-6.717514e-01	 -6.717514e-01	 0
-6.717514e-01	 -6.717514e-01	 3.750000e-01
-6.717514e-01	 -6.717514e-01	 7.500000e-01
-6.717514e-01	 -6.717514e-01	 1.125000e+00
-6.717514e-01	 -6.717514e-01	 1.875000e+00
-6.717514e-01	 -6.717514e-01	 3.000000e+00
-6.717514e-01	 -6.717514e-01	 2.250000e+00
-6.717514e-01	 6.717514e-01	 1.500000e+00
-6.717514e-01	 6.717514e-01	 0
-6.717514e-01	 6.717514e-01	 3.750000e-01
-6.717514e-01	 6.717514e-01	 7.500000e-01
-6.717514e-01	 6.717514e-01	 1.125000e+00
-6.717514e-01	 6.717514e-01	 1.875000e+00
-6.717514e-01	 6.717514e-01	 3.000000e+00
-6.717514e-01	 -6.717514e-01	 1.500000e+00
-6.717514e-01	 6.717514e-01	 2.250000e+00
-5.472098e-01	 -8.369955e-01	 0
-5.472098e-01	 -8.369955e-01	 7.500000e-01
-5.472098e-01	 -8.369955e-01	 1.500000e+00
-5.472098e-01	 -8.369955e-01	 2.250000e+00
-5.472098e-01	 -8.369955e-01	 3
-5.472098e-01	 8.369955e-01	 0
-5.472098e-01	 8.369955e-01	 7.500000e-01
-5.472098e-01	 8.369955e-01	 1.500000e+00
-5.472098e-01	 8.369955e-01	 2.250000e+00
-5.472098e-01	 8.369955e-01	 3
-5.335295e-01	 -8.160706e-01	 1.500000e+00
-5.335295e-01	 -8.160706e-01	 2.250000e+00
-5.335295e-01	 8.160706e-01	 0
-5.335295e-01	 8.160706e-01	 3.000000e+00
[...]
POINT_DATA 832
VECTORS displacement float
0	 0	 -5.149131e-03
-1.706356e-02	 4.372818e-03	 -4.711960e-03
-3.123541e-02	 8.136416e-03	 -3.640986e-03
-4.119507e-02	 1.055692e-02	 -1.951758e-03
-4.417353e-02	 1.150663e-02	 -6.626047e-11
-4.119507e-02	 1.055692e-02	 1.951758e-03
-3.123541e-02	 8.136416e-03	 3.640985e-03
-1.706356e-02	 4.372818e-03	 4.711960e-03
0	 0	 5.149131e-03
0	 0	 -4.545079e-03
-4.426860e-02	 1.310429e-02	 -6.578860e-11
0	 0	 4.545079e-03
-3.130263e-02	 9.266135e-03	 3.213856e-03
-3.130263e-02	 9.266135e-03	 -3.213856e-03
-1.268523e-02	 9.285250e-03	 -1.288310e-03
0	 0	 -1.821946e-03
-1.793962e-02	 1.313133e-02	 -6.349387e-11
0	 0	 1.821946e-03
-4.139496e-02	 1.031306e-02	 5.015625e-03
0	 0	 -7.093165e-03
-5.854132e-02	 1.458486e-02	 -6.877336e-11
0	 0	 7.093165e-03
-4.139496e-02	 1.031306e-02	 -5.015625e-03
-1.268523e-02	 9.285250e-03	 1.288310e-03
-3.134584e-02	 1.039140e-02	 -2.788541e-03
-4.131596e-02	 1.351623e-02	 -1.517703e-03
0	 0	 -3.943592e-03
-1.711363e-02	 5.598605e-03	 -3.664058e-03
-4.131596e-02	 1.351623e-02	 1.517702e-03
-1.711363e-02	 5.598605e-03	 3.664058e-03
0	 0	 3.943592e-03
-4.432971e-02	 1.469565e-02	 -6.531960e-11
-3.134584e-02	 1.039140e-02	 2.788541e-03
-4.437343e-02	 1.627134e-02	 -6.484841e-11
-3.137675e-02	 1.150557e-02	 2.362423e-03
0	 0	 -3.340971e-03
-3.137675e-02	 1.150557e-02	 -2.362423e-03
0	 0	 3.340971e-03
0	 0	 -1.410520e-03
0	 0	 1.410520e-03
-1.867897e-02	 1.701733e-02	 -6.359986e-11
0	 0	 -5.462354e-03
0	 0	 5.462353e-03
-5.847848e-02	 1.530820e-02	 -6.709481e-11
-4.135053e-02	 1.082453e-02	 -3.862467e-03
-1.320803e-02	 1.203307e-02	 -9.973885e-04
-1.320803e-02	 1.203307e-02	 9.973884e-04
-4.135053e-02	 1.082453e-02	 3.862467e-03
0	 0	 -2.735446e-03
-1.712062e-02	 6.815031e-03	 -2.613517e-03
-4.133283e-02	 1.645294e-02	 -1.082554e-03
-4.437801e-02	 1.785786e-02	 -6.437408e-11
-4.133283e-02	 1.645294e-02	 1.082554e-03
-3.137999e-02	 1.262741e-02	 1.934253e-03
-1.712062e-02	 6.815031e-03	 2.613517e-03
0	 0	 2.735446e-03
-3.137999e-02	 1.262741e-02	 -1.934253e-03
-1.938677e-02	 2.094035e-02	 -6.370346e-11
0	 0	 -9.999968e-04
0	 0	 9.999967e-04
-4.118908e-02	 1.131697e-02	 2.709797e-03
0	 0	 -3.832232e-03
-5.825015e-02	 1.600461e-02	 -6.541257e-11
0	 0	 3.832232e-03
-1.370851e-02	 1.480707e-02	 -7.071046e-04
-1.370851e-02	 1.480707e-02	 7.071044e-04
-4.118908e-02	 1.131697e-02	 -2.709797e-03
1.233074e-02	 2.035340e-02	 8.932802e-04
0	 0	 2.357064e-03
9.281332e-03	 1.558727e-02	 1.666696e-03
1.312579e-02	 2.204374e-02	 -6.151189e-11
1.233074e-02	 2.035340e-02	 -8.932803e-04
9.281332e-03	 1.558727e-02	 -1.666696e-03
5.107558e-03	 8.430655e-03	 -2.156569e-03
0	 0	 -2.357064e-03
5.107558e-03	 8.430655e-03	 2.156569e-03
-2.089608e-02	 5.912684e-03	 -6.057355e-03
-3.826968e-02	 1.074227e-02	 4.684623e-03
-2.089608e-02	 5.912684e-03	 6.057355e-03
0	 0	 -6.625058e-03
-3.826968e-02	 1.074227e-02	 -4.684623e-03
-5.412150e-02	 1.519186e-02	 -6.958622e-11
-5.044760e-02	 1.427448e-02	 2.509038e-03
0	 0	 6.625057e-03
-5.044760e-02	 1.427448e-02	 -2.509039e-03
-3.855821e-02	 1.023116e-02	 -4.142750e-03
0	 0	 2.078720e-03
8.755365e-03	 1.701140e-02	 1.469877e-03
8.755365e-03	 1.701140e-02	 -1.469877e-03
0	 0	 -2.078721e-03
0	 0	 -5.858733e-03
-3.855821e-02	 1.023116e-02	 4.142750e-03
0	 0	 5.858733e-03
1.238196e-02	 2.405775e-02	 -6.200967e-11
-5.452955e-02	 1.446905e-02	 -6.874713e-11
1.093418e-02	 2.405593e-02	 6.938061e-04
4.529084e-03	 9.964291e-03	 -1.674996e-03
0	 0	 1.801663e-03
4.529084e-03	 9.964290e-03	 1.674996e-03
1.162533e-02	 2.605850e-02	 -6.250172e-11
0	 0	 -1.801663e-03
-2.118556e-02	 5.345005e-03	 4.730929e-03
-5.114646e-02	 1.290398e-02	 -1.959615e-03
0	 0	 -5.095066e-03
-2.118556e-02	 5.345005e-03	 -4.730929e-03
0	 0	 5.095066e-03
8.220347e-03	 1.842614e-02	 1.273968e-03
1.093418e-02	 2.405593e-02	 -6.938062e-04
-5.114646e-02	 1.290398e-02	 1.959615e-03
-5.490199e-02	 1.373559e-02	 -6.791322e-11
8.220347e-03	 1.842614e-02	 -1.273968e-03
-3.882157e-02	 9.712528e-03	 -3.602756e-03
-3.882157e-02	 9.712528e-03	 3.602756e-03
-5.525711e-02	 1.300623e-02	 -6.707731e-11
1.087037e-02	 2.803772e-02	 -6.299201e-11
0	 0	 1.524636e-03
0	 0	 -1.524636e-03
0	 0	 -4.330154e-03
0	 0	 4.330154e-03
7.686509e-03	 1.982566e-02	 -1.078081e-03
7.686509e-03	 1.982566e-02	 1.078081e-03
-3.907268e-02	 9.196790e-03	 3.061881e-03
-3.907268e-02	 9.196790e-03	 -3.061881e-03
9.504170e-03	 2.771313e-02	 4.942591e-04
9.504170e-03	 2.771313e-02	 -4.942592e-04
3.936756e-03	 1.147915e-02	 -1.193247e-03
7.136573e-03	 2.122861e-02	 -8.811993e-04
-5.174034e-02	 1.150722e-02	 -1.408777e-03
0	 0	 1.246204e-03
0	 0	 -1.246204e-03
3.936756e-03	 1.147915e-02	 1.193247e-03
7.136573e-03	 2.122861e-02	 8.811992e-04
-2.143155e-02	 4.766447e-03	 -3.401087e-03
-3.929730e-02	 8.665320e-03	 -2.518612e-03
-3.929730e-02	 8.665320e-03	 2.518612e-03
-2.143155e-02	 4.766447e-03	 3.401087e-03
0	 0	 -3.561856e-03
-5.174034e-02	 1.150722e-02	 1.408776e-03
0	 0	 3.561856e-03
1.009264e-02	 3.002179e-02	 -6.349036e-11
-5.557477e-02	 1.225461e-02	 -6.623338e-11
0	 0	 5.900971e-03
2.567128e-02	 2.511576e-02	 4.172616e-03
3.630467e-02	 3.551905e-02	 -6.079321e-11
2.567128e-02	 2.511576e-02	 -4.172617e-03
0	 0	 -5.900971e-03
0	 0	 -4.116024e-03
-2.556208e-02	 5.192772e-03	 -2.910468e-03
-3.615024e-02	 7.343689e-03	 -6.879232e-11
-2.556208e-02	 5.192772e-03	 2.910468e-03
0	 0	 4.116024e-03
2.482789e-02	 2.646948e-02	 3.219529e-03
-2.682070e-02	 3.314833e-03	 -2.254204e-03
3.511194e-02	 3.743350e-02	 -6.212079e-11
2.482789e-02	 2.646948e-02	 -3.219529e-03
-3.793020e-02	 4.687881e-03	 -6.792404e-11
-2.682070e-02	 3.314833e-03	 2.254204e-03
0	 0	 4.553101e-03
0	 0	 -4.553101e-03
0	 0	 -3.187925e-03
0	 0	 3.187925e-03
2.389762e-02	 2.778002e-02	 2.266711e-03
-2.803569e-02	 1.388002e-03	 -1.598407e-03
0	 0	 3.205614e-03
3.379634e-02	 3.928688e-02	 -6.344642e-11
2.389762e-02	 2.778002e-02	 -2.266712e-03
0	 0	 -3.205614e-03
0	 0	 -2.260488e-03
-3.964845e-02	 1.962931e-03	 -6.705300e-11
-2.803569e-02	 1.388002e-03	 1.598407e-03
0	 0	 2.260488e-03
0	 0	 7.113978e-03
1.639593e-02	 1.650627e-02	 6.509758e-03
2.999342e-02	 3.019863e-02	 5.030342e-03
3.958329e-02	 3.984966e-02	 2.696430e-03
4.241710e-02	 4.270732e-02	 -6.272764e-11
3.958329e-02	 3.984966e-02	 -2.696430e-03
2.999342e-02	 3.019863e-02	 -5.030342e-03
1.639593e-02	 1.650627e-02	 -6.509758e-03
0	 0	 -7.113978e-03
0	 0	 8.873581e-05
-4.217573e-03	 -4.627976e-03	 8.119910e-05
-7.850468e-03	 -8.601268e-03	 6.274568e-05
-1.018212e-02	 -1.117292e-02	 3.363373e-05
-1.110224e-02	 -1.216403e-02	 -6.634303e-11
-1.018212e-02	 -1.117292e-02	 -3.363386e-05
-7.850468e-03	 -8.601268e-03	 -6.274581e-05
-4.217573e-03	 -4.627976e-03	 -8.119923e-05
0	 0	 -8.873595e-05
3.004365e-02	 3.027633e-02	 4.447826e-03
-8.950446e-03	 -9.702842e-03	 5.547971e-05
0	 0	 6.290176e-03
3.004365e-02	 3.027633e-02	 -4.447826e-03
0	 0	 -6.290176e-03
0	 0	 7.846019e-05
-8.950446e-03	 -9.702842e-03	 -5.547984e-05
0	 0	 -7.846032e-05
4.248814e-02	 4.281720e-02	 -6.309037e-11
-1.265784e-02	 -1.372189e-02	 -6.654202e-11
1.642919e-02	 1.656917e-02	 5.080567e-03
1.642919e-02	 1.656917e-02	 -5.080567e-03
0	 0	 5.469247e-03
4.253091e-02	 4.289866e-02	 -6.344949e-11
3.007389e-02	 3.033394e-02	 -3.867342e-03
0	 0	 -5.469247e-03
-5.405373e-03	 -5.816975e-03	 6.337222e-05
-5.405373e-03	 -5.816975e-03	 -6.337235e-05
3.966357e-02	 4.000152e-02	 -2.104440e-03
-1.304972e-02	 -1.404342e-02	 -2.624973e-05
3.007389e-02	 3.033394e-02	 3.867341e-03
3.966357e-02	 4.000152e-02	 2.104440e-03
0	 0	 6.822041e-05
-1.420826e-02	 -1.527385e-02	 -6.673745e-11
-1.004675e-02	 -1.080025e-02	 -4.823923e-05
0	 0	 -6.822054e-05
-1.004675e-02	 -1.080025e-02	 4.823909e-05
-1.304972e-02	 -1.404342e-02	 2.624959e-05
-1.113291e-02	 -1.188729e-02	 4.098999e-05
3.009615e-02	 3.038330e-02	 3.286176e-03
0	 0	 4.647355e-03
4.256239e-02	 4.296848e-02	 -6.381038e-11
0	 0	 -4.647355e-03
0	 0	 5.796862e-05
-1.574431e-02	 -1.681117e-02	 -6.693260e-11
0	 0	 -5.796876e-05
-1.113291e-02	 -1.188729e-02	 -4.099012e-05
3.009615e-02	 3.038330e-02	 -3.286177e-03
1.642844e-02	 1.659786e-02	 -3.648278e-03
-6.584751e-03	 -6.996701e-03	 -4.550683e-05
0	 0	 3.821795e-03
1.642844e-02	 1.659786e-02	 3.648278e-03
3.009499e-02	 3.040940e-02	 2.702417e-03
3.966177e-02	 4.007077e-02	 1.511166e-03
3.966177e-02	 4.007077e-02	 -1.511166e-03
0	 0	 -3.821795e-03
3.009499e-02	 3.040940e-02	 -2.702417e-03
-1.728931e-02	 -1.835661e-02	 -6.712978e-11
0	 0	 4.767108e-05
-6.584751e-03	 -6.996701e-03	 4.550670e-05
-1.222539e-02	 -1.298009e-02	 3.370852e-05
-1.589699e-02	 -1.689153e-02	 1.884945e-05
-1.589699e-02	 -1.689153e-02	 -1.884959e-05
0	 0	 -4.767121e-05
4.256074e-02	 4.300538e-02	 -6.417452e-11
-1.222539e-02	 -1.298009e-02	 -3.370865e-05
0	 0	 6.005507e-03
2.525314e-02	 2.631707e-02	 4.246535e-03
3.571333e-02	 3.721796e-02	 -6.540482e-11
2.525314e-02	 2.631707e-02	 -4.246535e-03
0	 0	 -6.005507e-03
0	 0	 4.264539e-03
5.821044e-03	 -2.621055e-02	 3.015484e-03
8.232200e-03	 -3.706732e-02	 -6.449325e-11
5.821044e-03	 -2.621055e-02	 -3.015484e-03
0	 0	 -4.264539e-03
3.756211e-02	 3.606927e-02	 -6.521475e-11
2.656042e-02	 2.550482e-02	 -3.276776e-03
0	 0	 3.302521e-03
0	 0	 -3.302521e-03
5.623333e-03	 -3.881807e-02	 -6.582337e-11
3.976297e-03	 -2.744852e-02	 -2.335235e-03
2.656042e-02	 2.550482e-02	 3.276776e-03
0	 0	 4.634061e-03
0	 0	 -4.634061e-03
3.976297e-03	 -2.744852e-02	 2.335235e-03
2.081565e-03	 -2.864068e-02	 1.655460e-03
2.782329e-02	 2.460458e-02	 2.307299e-03
0	 0	 3.263014e-03
3.934808e-02	 3.479613e-02	 -6.502409e-11
2.782329e-02	 2.460458e-02	 -2.307299e-03
0	 0	 -3.263014e-03
0	 0	 2.341175e-03
2.943777e-03	 -4.050403e-02	 -6.715040e-11
2.081565e-03	 -2.864068e-02	 -1.655461e-03
0	 0	 -2.341175e-03
2.071589e-02	 1.359329e-02	 9.561618e-04
1.478676e-02	 -5.077096e-02	 2.532108e-03
0	 0	 2.523101e-03
1.586015e-02	 1.023909e-02	 1.784102e-03
2.242964e-02	 1.448026e-02	 -6.679245e-11
2.071589e-02	 1.359329e-02	 -9.561620e-04
0	 0	 -2.523101e-03
0	 0	 6.685931e-03
1.113453e-02	 -3.851317e-02	 4.727667e-03
1.574660e-02	 -5.446585e-02	 -6.492989e-11
1.478676e-02	 -5.077096e-02	 -2.532108e-03
1.113453e-02	 -3.851317e-02	 -4.727667e-03
6.124875e-03	 -2.103002e-02	 -6.113049e-03
0	 0	 -6.685931e-03
8.580803e-03	 5.630527e-03	 2.308379e-03
1.586015e-02	 1.023909e-02	 -1.784102e-03
8.580803e-03	 5.630527e-03	 -2.308379e-03
6.124875e-03	 -2.103002e-02	 6.113049e-03
2.442625e-02	 1.374638e-02	 -6.645230e-11
1.507381e-02	 -5.485546e-02	 -6.565806e-11
1.727196e-02	 9.720158e-03	 1.573702e-03
0	 0	 2.225550e-03
1.727196e-02	 9.720157e-03	 -1.573702e-03
0	 0	 -2.225550e-03
0	 0	 5.912422e-03
1.065879e-02	 -3.878867e-02	 4.180714e-03
1.065880e-02	 -3.878867e-02	 -4.180714e-03
0	 0	 -5.912422e-03
1.867421e-02	 9.191544e-03	 -1.364258e-03
1.017530e-02	 -3.903876e-02	 -3.635664e-03
1.350821e-02	 -5.143520e-02	 1.977536e-03
5.595285e-03	 -2.130516e-02	 -4.774194e-03
0	 0	 1.929352e-03
1.010075e-02	 5.059095e-03	 1.793560e-03
0	 0	 -1.929352e-03
2.640932e-02	 1.299881e-02	 -6.611689e-11
0	 0	 5.141605e-03
5.595285e-03	 -2.130516e-02	 4.774194e-03
1.439004e-02	 -5.520914e-02	 -6.638162e-11
0	 0	 -5.141605e-03
2.438537e-02	 1.221374e-02	 7.429170e-04
2.438537e-02	 1.221374e-02	 -7.429171e-04
1.867421e-02	 9.191544e-03	 1.364258e-03
1.017530e-02	 -3.903876e-02	 3.635664e-03
1.350821e-02	 -5.143520e-02	 -1.977536e-03
1.010075e-02	 5.059095e-03	 -1.793561e-03
2.837096e-02	 1.225247e-02	 -6.578032e-11
2.006130e-02	 8.663806e-03	 -1.154815e-03
9.694318e-03	 -3.927662e-02	 -3.089733e-03
0	 0	 4.369543e-03
0	 0	 -4.369543e-03
1.370984e-02	 -5.554553e-02	 -6.710358e-11
0	 0	 1.633154e-03
0	 0	 -1.633154e-03
2.006130e-02	 8.663806e-03	 1.154814e-03
9.694318e-03	 -3.927662e-02	 3.089733e-03
2.800886e-02	 1.079810e-02	 5.295640e-04
0	 0	 1.335465e-03
2.800886e-02	 1.079810e-02	 -5.295641e-04
0	 0	 -1.335465e-03
3.033689e-02	 1.148243e-02	 -6.543852e-11
0	 0	 3.594058e-03
0	 0	 -3.594059e-03
1.220226e-02	 -5.199358e-02	 1.421547e-03
1.220226e-02	 -5.199358e-02	 -1.421547e-03
5.054343e-03	 -2.153645e-02	 -3.431919e-03
1.160165e-02	 4.472721e-03	 1.278481e-03
2.145142e-02	 8.119303e-03	 9.443165e-04
2.145142e-02	 8.119303e-03	 -9.443167e-04
1.160165e-02	 4.472721e-03	 -1.278481e-03
1.300749e-02	 -5.584389e-02	 -6.783414e-11
5.054343e-03	 -2.153645e-02	 3.431919e-03
9.197686e-03	 -3.948759e-02	 -2.541383e-03
9.197686e-03	 -3.948759e-02	 2.541383e-03
9.545455e-03	 -1.165632e-02	 -1.163564e-03
1.054794e-02	 -4.109135e-02	 4.985043e-03
0	 0	 -1.645528e-03
1.349931e-02	 -1.648453e-02	 -6.704673e-11
0	 0	 1.645528e-03
0	 0	 7.049915e-03
1.491704e-02	 -5.811194e-02	 -6.669078e-11
0	 0	 -7.049915e-03
9.545455e-03	 -1.165632e-02	 1.163564e-03
1.054794e-02	 -4.109135e-02	 -4.985043e-03
1.230689e-02	 -1.218040e-02	 -9.013246e-04
0	 0	 -1.274665e-03
0	 0	 1.274665e-03
1.112814e-02	 -4.103386e-02	 3.838784e-03
1.112814e-02	 -4.103386e-02	 -3.838784e-03
0	 0	 5.428861e-03
0	 0	 -5.428861e-03
1.230689e-02	 -1.218040e-02	 9.013245e-04
1.573756e-02	 -5.803064e-02	 -6.767017e-11
1.740457e-02	 -1.722568e-02	 -6.640738e-11
1.653207e-02	 -5.778457e-02	 -6.864795e-11
0	 0	 -9.046875e-04
2.134619e-02	 -1.793939e-02	 -6.576846e-11
0	 0	 9.046873e-04
0	 0	 3.808475e-03
0	 0	 -3.808475e-03
1.509404e-02	 -1.268507e-02	 6.397105e-04
1.509404e-02	 -1.268507e-02	 -6.397107e-04
1.168994e-02	 -4.085986e-02	 2.692998e-03
1.168994e-02	 -4.085986e-02	 -2.692998e-03
0	 0	 -5.022253e-03
4.483283e-03	 -1.664311e-02	 -4.595854e-03
8.341956e-03	 -3.046576e-02	 -3.551269e-03
1.082360e-02	 -4.018001e-02	 -1.903665e-03
1.179731e-02	 -4.308509e-02	 -6.599174e-11
1.082360e-02	 -4.018001e-02	 1.903665e-03
8.341956e-03	 -3.046576e-02	 3.551269e-03
4.483283e-03	 -1.664311e-02	 4.595854e-03
0	 0	 5.022253e-03
0	 0	 -4.433085e-03
1.343533e-02	 -4.317782e-02	 -6.595544e-11
0	 0	 4.433085e-03
9.500214e-03	 -3.053133e-02	 3.134664e-03
9.500214e-03	 -3.053133e-02	 -3.134665e-03
1.065390e-02	 -3.057347e-02	 -2.719829e-03
1.385767e-02	 -4.029793e-02	 -1.480305e-03
0	 0	 -3.846419e-03
5.740036e-03	 -1.669195e-02	 -3.573773e-03
1.385767e-02	 -4.029793e-02	 1.480305e-03
5.740036e-03	 -1.669195e-02	 3.573773e-03
0	 0	 3.846419e-03
1.506689e-02	 -4.323742e-02	 -6.591807e-11
1.065390e-02	 -3.057347e-02	 2.719829e-03
1.668238e-02	 -4.328006e-02	 -6.587878e-11
1.179622e-02	 -3.060362e-02	 2.304211e-03
0	 0	 -3.258647e-03
1.179622e-02	 -3.060362e-02	 -2.304211e-03
0	 0	 3.258646e-03
0	 0	 -2.668042e-03
6.987190e-03	 -1.669877e-02	 -2.549117e-03
1.686857e-02	 -4.031439e-02	 -1.055879e-03
1.830898e-02	 -4.328453e-02	 -6.583952e-11
1.686857e-02	 -4.031439e-02	 1.055879e-03
1.294640e-02	 -3.060679e-02	 1.886591e-03
6.987190e-03	 -1.669877e-02	 2.549117e-03
0	 0	 2.668042e-03
1.294640e-02	 -3.060679e-02	 -1.886591e-03
1.294641e-02	 -3.060681e-02	 1.886594e-03
0	 0	 2.668047e-03
6.987192e-03	 -1.669878e-02	 2.549122e-03
1.686857e-02	 -4.031442e-02	 1.055881e-03
1.830898e-02	 -4.328457e-02	 -6.948201e-11
1.686857e-02	 -4.031442e-02	 -1.055881e-03
1.294641e-02	 -3.060681e-02	 -1.886594e-03
6.987192e-03	 -1.669878e-02	 -2.549122e-03
0	 0	 -2.668047e-03
0	 0	 3.258652e-03
1.179623e-02	 -3.060365e-02	 2.304215e-03
0	 0	 -3.258652e-03
1.668239e-02	 -4.328010e-02	 -6.944184e-11
1.179623e-02	 -3.060365e-02	 -2.304215e-03
1.506689e-02	 -4.323746e-02	 -6.940446e-11
1.065390e-02	 -3.057350e-02	 -2.719833e-03
0	 0	 3.846425e-03
5.740038e-03	 -1.669196e-02	 3.573778e-03
1.385768e-02	 -4.029796e-02	 -1.480307e-03
5.740038e-03	 -1.669196e-02	 -3.573778e-03
0	 0	 -3.846425e-03
1.065390e-02	 -3.057350e-02	 2.719833e-03
1.385768e-02	 -4.029796e-02	 1.480307e-03
9.500218e-03	 -3.053135e-02	 3.134669e-03
9.500218e-03	 -3.053135e-02	 -3.134669e-03
0	 0	 4.433091e-03
1.343534e-02	 -4.317786e-02	 -6.936371e-11
0	 0	 -4.433091e-03
0	 0	 5.022260e-03
4.483285e-03	 -1.664312e-02	 4.595861e-03
8.341960e-03	 -3.046579e-02	 3.551274e-03
1.082361e-02	 -4.018005e-02	 1.903668e-03
1.179731e-02	 -4.308513e-02	 -6.932413e-11
1.082361e-02	 -4.018005e-02	 -1.903668e-03
8.341960e-03	 -3.046579e-02	 -3.551274e-03
4.483285e-03	 -1.664312e-02	 -4.595861e-03
0	 0	 -5.022260e-03
1.168994e-02	 -4.085983e-02	 -2.692995e-03
1.168994e-02	 -4.085983e-02	 2.692995e-03
1.509404e-02	 -1.268509e-02	 6.397134e-04
1.509404e-02	 -1.268509e-02	 -6.397135e-04
0	 0	 -3.808470e-03
0	 0	 3.808470e-03
0	 0	 9.046913e-04
2.134620e-02	 -1.793943e-02	 -6.993048e-11
0	 0	 -9.046915e-04
1.653207e-02	 -5.778453e-02	 -6.582215e-11
1.740458e-02	 -1.722572e-02	 -7.082678e-11
1.573755e-02	 -5.803060e-02	 -6.539323e-11
1.230690e-02	 -1.218042e-02	 -9.013280e-04
0	 0	 -5.428855e-03
0	 0	 5.428855e-03
1.112813e-02	 -4.103383e-02	 -3.838780e-03
1.112813e-02	 -4.103383e-02	 3.838780e-03
0	 0	 1.274670e-03
0	 0	 -1.274670e-03
1.230690e-02	 -1.218042e-02	 9.013279e-04
1.054794e-02	 -4.109132e-02	 4.985038e-03
9.545459e-03	 -1.165635e-02	 -1.163568e-03
0	 0	 -7.049908e-03
1.491704e-02	 -5.811190e-02	 -6.496309e-11
0	 0	 7.049908e-03
0	 0	 1.645534e-03
1.349932e-02	 -1.648457e-02	 -7.172235e-11
0	 0	 -1.645534e-03
1.054794e-02	 -4.109132e-02	 -4.985038e-03
9.545459e-03	 -1.165635e-02	 1.163568e-03
9.197684e-03	 -3.948757e-02	 -2.541380e-03
9.197684e-03	 -3.948757e-02	 2.541380e-03
5.054342e-03	 -2.153643e-02	 -3.431915e-03
1.300749e-02	 -5.584386e-02	 -6.589102e-11
1.160165e-02	 4.472711e-03	 -1.278478e-03
2.145143e-02	 8.119285e-03	 -9.443149e-04
2.145143e-02	 8.119285e-03	 9.443147e-04
1.160165e-02	 4.472711e-03	 1.278478e-03
1.220226e-02	 -5.199355e-02	 -1.421546e-03
1.220226e-02	 -5.199355e-02	 1.421546e-03
5.054342e-03	 -2.153643e-02	 3.431915e-03
0	 0	 -3.594054e-03
0	 0	 3.594054e-03
3.033690e-02	 1.148240e-02	 -7.008141e-11
0	 0	 -1.335463e-03
2.800887e-02	 1.079808e-02	 5.295630e-04
0	 0	 1.335463e-03
2.800887e-02	 1.079808e-02	 -5.295631e-04
9.694315e-03	 -3.927660e-02	 -3.089730e-03
2.006130e-02	 8.663788e-03	 -1.154813e-03
0	 0	 -1.633152e-03
0	 0	 1.633151e-03
1.370983e-02	 -5.554550e-02	 -6.558959e-11
0	 0	 -4.369538e-03
0	 0	 4.369538e-03
9.694315e-03	 -3.927660e-02	 3.089730e-03
2.006130e-02	 8.663788e-03	 1.154812e-03
2.837097e-02	 1.225245e-02	 -7.073131e-11
1.010075e-02	 5.059086e-03	 1.793558e-03
1.017529e-02	 -3.903873e-02	 -3.635660e-03
1.350821e-02	 -5.143516e-02	 1.977534e-03
1.867421e-02	 9.191526e-03	 -1.364256e-03
2.438538e-02	 1.221371e-02	 7.429158e-04
2.438538e-02	 1.221371e-02	 -7.429160e-04
0	 0	 -5.141600e-03
5.595283e-03	 -2.130514e-02	 -4.774189e-03
1.439004e-02	 -5.520910e-02	 -6.529516e-11
0	 0	 5.141600e-03
2.640933e-02	 1.299878e-02	 -7.137545e-11
0	 0	 -1.929349e-03
1.010075e-02	 5.059086e-03	 -1.793558e-03
0	 0	 1.929349e-03
1.350821e-02	 -5.143516e-02	 -1.977534e-03
5.595283e-03	 -2.130514e-02	 4.774189e-03
1.017529e-02	 -3.903873e-02	 3.635660e-03
1.867421e-02	 9.191526e-03	 1.364256e-03
0	 0	 -5.912417e-03
1.065879e-02	 -3.878864e-02	 -4.180710e-03
1.065879e-02	 -3.878864e-02	 4.180710e-03
0	 0	 5.912416e-03
0	 0	 -2.225547e-03
1.727197e-02	 9.720140e-03	 1.573699e-03
0	 0	 2.225547e-03
1.727197e-02	 9.720140e-03	 -1.573699e-03
1.507381e-02	 -5.485542e-02	 -6.499882e-11
2.442626e-02	 1.374635e-02	 -7.201813e-11
6.124874e-03	 -2.103001e-02	 -6.113043e-03
8.580806e-03	 5.630517e-03	 -2.308376e-03
1.586016e-02	 1.023907e-02	 1.784099e-03
8.580806e-03	 5.630517e-03	 2.308376e-03
0	 0	 -6.685924e-03
1.113452e-02	 -3.851315e-02	 -4.727663e-03
1.574659e-02	 -5.446581e-02	 -6.469826e-11
1.478675e-02	 -5.077093e-02	 2.532105e-03
1.113452e-02	 -3.851315e-02	 4.727662e-03
6.124874e-03	 -2.103001e-02	 6.113043e-03
0	 0	 6.685924e-03
0	 0	 -2.523098e-03
1.586016e-02	 1.023907e-02	 -1.784100e-03
2.242965e-02	 1.448023e-02	 -7.266584e-11
2.071590e-02	 1.359327e-02	 9.561604e-04
0	 0	 2.523098e-03
1.478675e-02	 -5.077093e-02	 -2.532105e-03
2.071590e-02	 1.359327e-02	 -9.561606e-04
0	 0	 -2.341172e-03
2.943777e-03	 -4.050400e-02	 -6.612488e-11
2.081565e-03	 -2.864066e-02	 1.655458e-03
0	 0	 2.341171e-03
0	 0	 -3.263013e-03
3.934809e-02	 3.479612e-02	 -7.022584e-11
2.782330e-02	 2.460457e-02	 2.307299e-03
0	 0	 3.263013e-03