# vtk DataFile Version 3.0
Unstructured Grid Example
ASCII
DATASET UNSTRUCTURED_GRID
POINTS 832 float
-1	 0	 0
-1	 0	 3.750000e-01
-1	 0	 7.500000e-01
-1	 0	 1.125000e+00
-1	 0	 1.500000e+00
-1	 0	 1.875000e+00
-1	 0	 2.250000e+00
-1	 0	 2.625000e+00
-1	 0	 3
-9.875000e-01	 0	 0
-9.875000e-01	 0	 1.500000e+00
-9.875000e-01	 0	 3
-9.875000e-01	 0	 2.250000e+00
-9.875000e-01	 0	 7.500000e-01
-9.833054e-01	 -1.819631e-01	 7.500000e-01
-9.833054e-01	 -1.819631e-01	 0
-9.833054e-01	 -1.819631e-01	 1.500000e+00
-9.833054e-01	 -1.819631e-01	 3.000000e+00
-9.833054e-01	 1.819631e-01	 2.250000e+00
-9.833054e-01	 1.819631e-01	 0
-9.833054e-01	 1.819631e-01	 1.500000e+00
-9.833054e-01	 1.819631e-01	 3.000000e+00
-9.833054e-01	 1.819631e-01	 7.500000e-01
-9.833054e-01	 -1.819631e-01	 2.250000e+00
-9.750000e-01	 0	 7.500000e-01
-9.750000e-01	 0	 1.125000e+00
-9.750000e-01	 0	 0
-9.750000e-01	 0	 3.750000e-01
-9.750000e-01	 0	 1.875000e+00
-9.750000e-01	 0	 2.625000e+00
-9.750000e-01	 0	 3
-9.750000e-01	 0	 1.500000e+00
-9.750000e-01	 0	 2.250000e+00
-9.625000e-01	 0	 1.500000e+00
-9.625000e-01	 0	 2.250000e+00
-9.625000e-01	 0	 0
-9.625000e-01	 0	 7.500000e-01
-9.625000e-01	 0	 3
-9.587227e-01	 -1.774140e-01	 0
-9.587227e-01	 -1.774140e-01	 3.000000e+00
-9.587227e-01	 -1.774140e-01	 1.500000e+00
-9.587227e-01	 1.774140e-01	 0
-9.587227e-01	 1.774140e-01	 3.000000e+00
-9.587227e-01	 1.774140e-01	 1.500000e+00
-9.587227e-01	 1.774140e-01	 7.500000e-01
-9.587227e-01	 -1.774140e-01	 7.500000e-01
-9.587227e-01	 -1.774140e-01	 2.250000e+00
-9.587227e-01	 1.774140e-01	 2.250000e+00
-9.500000e-01	 0	 0
-9.500000e-01	 0	 3.750000e-01
-9.500000e-01	 0	 1.125000e+00
-9.500000e-01	 0	 1.500000e+00
-9.500000e-01	 0	 1.875000e+00
-9.500000e-01	 0	 2.250000e+00
-9.500000e-01	 0	 2.625000e+00
-9.500000e-01	 0	 3
-9.500000e-01	 0	 7.500000e-01
-9.341401e-01	 -1.728649e-01	 1.500000e+00
-9.341401e-01	 -1.728649e-01	 0
-9.341401e-01	 -1.728649e-01	 3.000000e+00
-9.341401e-01	 1.728649e-01	 2.250000e+00
-9.341401e-01	 1.728649e-01	 0
-9.341401e-01	 1.728649e-01	 1.500000e+00
-9.341401e-01	 1.728649e-01	 3.000000e+00
-9.341401e-01	 -1.728649e-01	 7.500000e-01
-9.341401e-01	 -1.728649e-01	 2.250000e+00
-9.341401e-01	 1.728649e-01	 7.500000e-01
-9.297883e-01	 -3.680947e-01	 1.125000e+00
-9.297883e-01	 -3.680947e-01	 0
-9.297883e-01	 -3.680947e-01	 7.500000e-01
-9.297883e-01	 -3.680947e-01	 1.500000e+00
-9.297883e-01	 -3.680947e-01	 1.875000e+00
-9.297883e-01	 -3.680947e-01	 2.250000e+00
-9.297883e-01	 -3.680947e-01	 2.625000e+00
-9.297883e-01	 -3.680947e-01	 3.000000e+00
-9.297883e-01	 -3.680947e-01	 3.750000e-01
-9.297883e-01	 3.680947e-01	 3.750000e-01
-9.297883e-01	 3.680947e-01	 2.250000e+00
-9.297883e-01	 3.680947e-01	 2.625000e+00
-9.297883e-01	 3.680947e-01	 0
-9.297883e-01	 3.680947e-01	 7.500000e-01
-9.297883e-01	 3.680947e-01	 1.500000e+00
-9.297883e-01	 3.680947e-01	 1.875000e+00
-9.297883e-01	 3.680947e-01	 3.000000e+00
-9.297883e-01	 3.680947e-01	 1.125000e+00
-9.181659e-01	 3.634935e-01	 7.500000e-01
-9.181659e-01	 -3.634935e-01	 0
-9.181659e-01	 -3.634935e-01	 7.500000e-01
-9.181659e-01	 -3.634935e-01	 2.250000e+00
-9.181659e-01	 -3.634935e-01	 3
-9.181659e-01	 3.634935e-01	 0
-9.181659e-01	 3.634935e-01	 2.250000e+00
-9.181659e-01	 3.634935e-01	 3
-9.181659e-01	 -3.634935e-01	 1.500000e+00
-9.181659e-01	 3.634935e-01	 1.500000e+00
-9.065436e-01	 -3.588923e-01	 1.125000e+00
-9.065436e-01	 -3.588923e-01	 2.625000e+00
-9.065436e-01	 -3.588923e-01	 0
-9.065436e-01	 -3.588923e-01	 3.750000e-01
-9.065436e-01	 -3.588923e-01	 1.500000e+00
-9.065436e-01	 -3.588923e-01	 3
-9.065436e-01	 3.588923e-01	 2.625000e+00
-9.065436e-01	 3.588923e-01	 1.125000e+00
-9.065436e-01	 3.588923e-01	 0
-9.065436e-01	 3.588923e-01	 3.750000e-01
-9.065436e-01	 3.588923e-01	 3
-9.065436e-01	 -3.588923e-01	 7.500000e-01
-9.065436e-01	 -3.588923e-01	 1.875000e+00
-9.065436e-01	 3.588923e-01	 1.875000e+00
-9.065436e-01	 3.588923e-01	 1.500000e+00
-9.065436e-01	 -3.588923e-01	 2.250000e+00
-9.065436e-01	 3.588923e-01	 7.500000e-01
-9.065436e-01	 3.588923e-01	 2.250000e+00
-8.949212e-01	 3.542912e-01	 1.500000e+00
-8.949212e-01	 -3.542912e-01	 1.500000e+00
-8.949212e-01	 -3.542912e-01	 0
-8.949212e-01	 -3.542912e-01	 3.000000e+00
-8.949212e-01	 3.542912e-01	 0
-8.949212e-01	 3.542912e-01	 3.000000e+00
-8.949212e-01	 -3.542912e-01	 2.250000e+00
-8.949212e-01	 -3.542912e-01	 7.500000e-01
-8.949212e-01	 3.542912e-01	 2.250000e+00
-8.949212e-01	 3.542912e-01	 7.500000e-01
-8.832989e-01	 -3.496900e-01	 1.125000e+00
-8.832989e-01	 -3.496900e-01	 1.875000e+00
-8.832989e-01	 -3.496900e-01	 2.625000e+00
-8.832989e-01	 -3.496900e-01	 2.250000e+00
-8.832989e-01	 3.496900e-01	 1.125000e+00
-8.832989e-01	 -3.496900e-01	 0
-8.832989e-01	 -3.496900e-01	 3.000000e+00
-8.832989e-01	 -3.496900e-01	 3.750000e-01
-8.832989e-01	 -3.496900e-01	 7.500000e-01
-8.832989e-01	 3.496900e-01	 3.750000e-01
-8.832989e-01	 3.496900e-01	 7.500000e-01
-8.832989e-01	 3.496900e-01	 2.250000e+00
-8.832989e-01	 3.496900e-01	 2.625000e+00
-8.832989e-01	 3.496900e-01	 0
-8.832989e-01	 3.496900e-01	 1.875000e+00
-8.832989e-01	 3.496900e-01	 3.000000e+00
-8.832989e-01	 -3.496900e-01	 1.500000e+00
-8.832989e-01	 3.496900e-01	 1.500000e+00
-8.369955e-01	 -5.472098e-01	 0
-8.369955e-01	 -5.472098e-01	 7.500000e-01
-8.369955e-01	 -5.472098e-01	 1.500000e+00
-8.369955e-01	 -5.472098e-01	 2.250000e+00
-8.369955e-01	 -5.472098e-01	 3
-8.369955e-01	 5.472098e-01	 0
-8.369955e-01	 5.472098e-01	 7.500000e-01
-8.369955e-01	 5.472098e-01	 1.500000e+00
-8.369955e-01	 5.472098e-01	 2.250000e+00
-8.369955e-01	 5.472098e-01	 3
-8.160706e-01	 -5.335295e-01	 7.500000e-01
-8.160706e-01	 5.335295e-01	 7.500000e-01
-8.160706e-01	 -5.335295e-01	 1.500000e+00
-8.160706e-01	 -5.335295e-01	 2.250000e+00
-8.160706e-01	 5.335295e-01	 1.500000e+00
-8.160706e-01	 5.335295e-01	 2.250000e+00
-8.160706e-01	 -5.335295e-01	 0
-8.160706e-01	 -5.335295e-01	 3.000000e+00
-8.160706e-01	 5.335295e-01	 0
-8.160706e-01	 5.335295e-01	 3.000000e+00
-7.951457e-01	 -5.198493e-01	 7.500000e-01
-7.951457e-01	 5.198493e-01	 7.500000e-01
-7.951457e-01	 -5.198493e-01	 0
-7.951457e-01	 -5.198493e-01	 1.500000e+00
-7.951457e-01	 -5.198493e-01	 2.250000e+00
-7.951457e-01	 -5.198493e-01	 3
-7.951457e-01	 5.198493e-01	 0
-7.951457e-01	 5.198493e-01	 1.500000e+00
-7.951457e-01	 5.198493e-01	 2.250000e+00
-7.951457e-01	 5.198493e-01	 3
-7.071068e-01	 -7.071068e-01	 0
-7.071068e-01	 -7.071068e-01	 3.750000e-01
-7.071068e-01	 -7.071068e-01	 7.500000e-01
-7.071068e-01	 -7.071068e-01	 1.125000e+00
-7.071068e-01	 -7.071068e-01	 1.500000e+00
-7.071068e-01	 -7.071068e-01	 1.875000e+00
-7.071068e-01	 -7.071068e-01	 2.250000e+00
-7.071068e-01	 -7.071068e-01	 2.625000e+00
-7.071068e-01	 -7.071068e-01	 3.000000e+00
-7.071068e-01	 7.071068e-01	 0
-7.071068e-01	 7.071068e-01	 3.750000e-01
-7.071068e-01	 7.071068e-01	 7.500000e-01
-7.071068e-01	 7.071068e-01	 1.125000e+00
-7.071068e-01	 7.071068e-01	 1.500000e+00
-7.071068e-01	 7.071068e-01	 1.875000e+00
-7.071068e-01	 7.071068e-01	 2.250000e+00
-7.071068e-01	 7.071068e-01	 2.625000e+00
-7.071068e-01	 7.071068e-01	 3.000000e+00
-6.982679e-01	 -6.982679e-01	 7.500000e-01
-6.982679e-01	 6.982679e-01	 7.500000e-01
-6.982679e-01	 -6.982679e-01	 0
-6.982679e-01	 -6.982679e-01	 2.250000e+00
-6.982679e-01	 -6.982679e-01	 3.000000e+00
-6.982679e-01	 6.982679e-01	 0
-6.982679e-01	 6.982679e-01	 2.250000e+00
-6.982679e-01	 6.982679e-01	 3.000000e+00
-6.982679e-01	 -6.982679e-01	 1.500000e+00
-6.982679e-01	 6.982679e-01	 1.500000e+00
-6.894291e-01	 -6.894291e-01	 3.750000e-01
-6.894291e-01	 -6.894291e-01	 2.625000e+00
-6.894291e-01	 -6.894291e-01	 0
-6.894291e-01	 -6.894291e-01	 1.500000e+00
-6.894291e-01	 -6.894291e-01	 2.250000e+00
-6.894291e-01	 -6.894291e-01	 3.000000e+00
-6.894291e-01	 6.894291e-01	 3.750000e-01
-6.894291e-01	 6.894291e-01	 2.625000e+00
-6.894291e-01	 -6.894291e-01	 1.875000e+00
-6.894291e-01	 6.894291e-01	 1.875000e+00
-6.894291e-01	 -6.894291e-01	 7.500000e-01
-6.894291e-01	 -6.894291e-01	 1.125000e+00
-6.894291e-01	 6.894291e-01	 0
-6.894291e-01	 6.894291e-01	 1.500000e+00
-6.894291e-01	 6.894291e-01	 2.250000e+00
-6.894291e-01	 6.894291e-01	 3.000000e+00
-6.894291e-01	 6.894291e-01	 7.500000e-01
-6.894291e-01	 6.894291e-01	 1.125000e+00
-6.805903e-01	 6.805903e-01	 7.500000e-01
-6.805903e-01	 -6.805903e-01	 7.500000e-01
-6.805903e-01	 -6.805903e-01	 0
-6.805903e-01	 -6.805903e-01	 1.500000e+00
-6.805903e-01	 -6.805903e-01	 3.000000e+00
-6.805903e-01	 6.805903e-01	 0
-6.805903e-01	 6.805903e-01	 1.500000e+00
-6.805903e-01	 6.805903e-01	 3.000000e+00
-6.805903e-01	 6.805903e-01	 2.250000e+00
-6.805903e-01	 -6.805903e-01	 2.250000e+00
-6.717514e-01	 -6.717514e-01	 2.625000e+00
-6.717514e-01	 6.717514e-01	 2.625000e+00
-6.717514e-01	 -6.717514e-01	 0
-6.717514e-01	 -6.717514e-01	 3.750000e-01
-6.717514e-01	 -6.717514e-01	 7.500000e-01
-6.717514e-01	 -6.717514e-01	 1.125000e+00
-6.717514e-01	 -6.717514e-01	 1.875000e+00
-6.717514e-01	 -6.717514e-01	 3.000000e+00
-6.717514e-01	 -6.717514e-01	 2.250000e+00
-6.717514e-01	 6.717514e-01	 1.500000e+00
-6.717514e-01	 6.717514e-01	 0
-6.717514e-01	 6.717514e-01	 3.750000e-01
-6.717514e-01	 6.717514e-01	 7.500000e-01
-6.717514e-01	 6.717514e-01	 1.125000e+00
-6.717514e-01	 6.717514e-01	 1.875000e+00
-6.717514e-01	 6.717514e-01	 3.000000e+00
-6.717514e-01	 -6.717514e-01	 1.500000e+00
-6.717514e-01	 6.717514e-01	 2.250000e+00
-5.472098e-01	 -8.369955e-01	 0
-5.472098e-01	 -8.369955e-01	 7.500000e-01
-5.472098e-01	 -8.369955e-01	 1.500000e+00
-5.472098e-01	 -8.369955e-01	 2.250000e+00
-5.472098e-01	 -8.369955e-01	 3
-5.472098e-01	 8.369955e-01	 0
-5.472098e-01	 8.369955e-01	 7.500000e-01
-5.472098e-01	 8.369955e-01	 1.500000e+00
-5.472098e-01	 8.369955e-01	 2.250000e+00
-5.472098e-01	 8.369955e-01	 3
-5.335295e-01	 -8.160706e-01	 1.500000e+00
-5.335295e-01	 -8.160706e-01	 2.250000e+00
-5.335295e-01	 8.160706e-01	 0
-5.335295e-01	 8.160706e-01	 3.000000e+00
[...]
POINT_DATA 832
VECTORS displacement float
0	 0	 -1.938733e-03
-1.142497e-02	 1.579012e-03	 -1.794097e-03
-2.090388e-02	 2.831110e-03	 -1.370891e-03
-2.758232e-02	 3.812072e-03	 -7.431393e-04
-2.956255e-02	 4.003794e-03	 1.039572e-11
-2.758232e-02	 3.812072e-03	 7.431393e-04
-2.090388e-02	 2.831110e-03	 1.370891e-03
-1.142497e-02	 1.579012e-03	 1.794097e-03
0	 0	 1.938733e-03
0	 0	 -1.555271e-03
-2.966585e-02	 9.372341e-03	 9.706114e-12
0	 0	 1.555271e-03
-2.097692e-02	 6.627246e-03	 1.099742e-03
-2.097692e-02	 6.627246e-03	 -1.099742e-03
2.577049e-02	 8.867057e-03	 1.843020e-03
0	 0	 2.606425e-03
3.644498e-02	 1.253991e-02	 9.755123e-12
0	 0	 -2.606425e-03
-5.259563e-02	 1.092528e-02	 3.662609e-03
0	 0	 -5.179712e-03
-7.438145e-02	 1.545068e-02	 1.128168e-11
0	 0	 5.179712e-03
-5.259563e-02	 1.092528e-02	 -3.662609e-03
2.577049e-02	 8.867057e-03	 -1.843020e-03
-2.100353e-02	 1.035475e-02	 -8.326277e-04
-2.767547e-02	 1.345964e-02	 -4.464482e-04
0	 0	 -1.177513e-03
-1.146355e-02	 5.575166e-03	 -1.077821e-03
-2.767547e-02	 1.345964e-02	 4.464483e-04
-1.146355e-02	 5.575166e-03	 1.077821e-03
0	 0	 1.177513e-03
-2.970347e-02	 1.464383e-02	 9.013673e-12
-2.100353e-02	 1.035475e-02	 8.326277e-04
-2.972826e-02	 1.990312e-02	 8.321151e-12
-2.102105e-02	 1.407363e-02	 5.646792e-04
0	 0	 -7.985769e-04
-2.102105e-02	 1.407363e-02	 -5.646792e-04
0	 0	 7.985770e-04
0	 0	 1.623400e-03
0	 0	 -1.623400e-03
3.524689e-02	 1.940330e-02	 8.876349e-12
0	 0	 -3.222385e-03
0	 0	 3.222385e-03
-7.424929e-02	 1.697827e-02	 9.367737e-12
-5.250218e-02	 1.200545e-02	 -2.278570e-03
2.492332e-02	 1.372021e-02	 1.147917e-03
2.492332e-02	 1.372021e-02	 -1.147917e-03
-5.250218e-02	 1.200545e-02	 2.278570e-03
0	 0	 -4.141747e-04
-1.143582e-02	 9.549694e-03	 -3.589676e-04
-2.760851e-02	 2.305500e-02	 -1.486892e-04
-2.967062e-02	 2.522549e-02	 7.625992e-12
-2.760851e-02	 2.305500e-02	 1.486892e-04
-2.098030e-02	 1.783712e-02	 2.928657e-04
-1.143582e-02	 9.549694e-03	 3.589676e-04
0	 0	 4.141747e-04
-2.098030e-02	 1.783712e-02	 -2.928657e-04
3.370400e-02	 2.626121e-02	 7.992762e-12
0	 0	 6.423449e-04
0	 0	 -6.423449e-04
-5.196142e-02	 1.300682e-02	 8.986374e-04
0	 0	 -1.270865e-03
-7.348454e-02	 1.839442e-02	 7.439234e-12
0	 0	 1.270865e-03
2.383233e-02	 1.856948e-02	 4.542064e-04
2.383233e-02	 1.856948e-02	 -4.542064e-04
-5.196142e-02	 1.300682e-02	 -8.986374e-04
6.129567e-02	 2.491272e-02	 1.832561e-03
0	 0	 4.807106e-03
4.641171e-02	 1.880686e-02	 3.399138e-03
6.563607e-02	 2.659691e-02	 9.299430e-12
6.129567e-02	 2.491272e-02	 -1.832561e-03
4.641171e-02	 1.880686e-02	 -3.399137e-03
2.538950e-02	 1.031919e-02	 -4.424193e-03
0	 0	 -4.807106e-03
2.538950e-02	 1.031919e-02	 4.424193e-03
-1.876126e-02	 6.186502e-03	 -3.146757e-03
-3.427596e-02	 1.133417e-02	 2.433171e-03
-1.876126e-02	 6.186502e-03	 3.146757e-03
0	 0	 -3.441023e-03
-3.427596e-02	 1.133417e-02	 -2.433171e-03
-4.847353e-02	 1.602894e-02	 1.361854e-11
-4.529368e-02	 1.493554e-02	 1.303429e-03
0	 0	 3.441023e-03
-4.529368e-02	 1.493554e-02	 -1.303429e-03
-3.536068e-02	 8.875312e-03	 -1.957761e-03
0	 0	 3.879800e-03
4.642650e-02	 1.921545e-02	 2.743433e-03
4.642650e-02	 1.921545e-02	 -2.743433e-03
0	 0	 -3.879800e-03
0	 0	 -2.768693e-03
-3.536068e-02	 8.875312e-03	 1.957761e-03
0	 0	 2.768693e-03
6.565698e-02	 2.717475e-02	 9.073973e-12
-5.000756e-02	 1.255159e-02	 1.213164e-11
6.115349e-02	 2.583464e-02	 1.122735e-03
2.533061e-02	 1.070106e-02	 -2.710523e-03
0	 0	 2.964962e-03
2.533061e-02	 1.070106e-02	 2.710523e-03
6.554503e-02	 2.769432e-02	 8.850223e-12
0	 0	 -2.964962e-03
-1.985107e-02	 3.574271e-03	 1.918201e-03
-4.792473e-02	 8.629052e-03	 -7.945449e-04
0	 0	 -2.104428e-03
-1.985107e-02	 3.574271e-03	 -1.918201e-03
0	 0	 2.104428e-03
4.634733e-02	 1.958284e-02	 2.096545e-03
6.115349e-02	 2.583464e-02	 -1.122735e-03
-4.792473e-02	 8.629052e-03	 7.945450e-04
-5.142688e-02	 9.104438e-03	 1.064684e-11
4.634733e-02	 1.958284e-02	 -2.096545e-03
-3.636430e-02	 6.437810e-03	 -1.488056e-03
-3.636430e-02	 6.437810e-03	 1.488056e-03
-5.283995e-02	 5.672809e-03	 9.160544e-12
6.542282e-02	 2.821585e-02	 8.625067e-12
0	 0	 2.048394e-03
0	 0	 -2.048394e-03
0	 0	 -1.438241e-03
0	 0	 1.438241e-03
4.626092e-02	 1.995162e-02	 -1.448433e-03
4.626092e-02	 1.995162e-02	 1.448433e-03
-3.736349e-02	 4.011282e-03	 1.016990e-03
-3.736349e-02	 4.011282e-03	 -1.016990e-03
6.070689e-02	 2.664070e-02	 4.108735e-04
6.070689e-02	 2.664070e-02	 -4.108735e-04
2.514562e-02	 1.103494e-02	 -9.919365e-04
4.605298e-02	 2.027127e-02	 -7.914427e-04
-5.034389e-02	 2.293906e-03	 -2.835554e-04
0	 0	 1.119269e-03
0	 0	 -1.119269e-03
2.514562e-02	 1.103494e-02	 9.919365e-04
4.605298e-02	 2.027127e-02	 7.914427e-04
-2.085312e-02	 9.501670e-04	 -6.845634e-04
-3.829364e-02	 1.522584e-03	 -5.398922e-04
-3.829364e-02	 1.522584e-03	 5.398922e-04
-2.085312e-02	 9.501670e-04	 6.845634e-04
0	 0	 -7.635228e-04
-5.034389e-02	 2.293906e-03	 2.835555e-04
0	 0	 7.635228e-04
6.512875e-02	 2.866791e-02	 8.397059e-12
-5.415539e-02	 2.153258e-03	 7.664985e-12
0	 0	 3.446877e-03
3.088123e-02	 1.571856e-02	 2.437310e-03
4.367266e-02	 2.222940e-02	 8.877741e-12
3.088123e-02	 1.571856e-02	 -2.437310e-03
0	 0	 -3.446877e-03
0	 0	 9.007712e-04
4.836166e-03	 -8.609969e-03	 6.369414e-04
6.839372e-03	 -1.217634e-02	 1.516260e-11
4.836166e-03	 -8.609969e-03	 -6.369414e-04
0	 0	 -9.007712e-04
3.327661e-02	 1.215308e-02	 1.550663e-03
2.040016e-03	 -1.290438e-02	 4.126635e-04
4.706023e-02	 1.718706e-02	 8.875307e-12
3.327661e-02	 1.215308e-02	 -1.550663e-03
2.885018e-03	 -1.824955e-02	 1.156688e-11
2.040016e-03	 -1.290438e-02	 -4.126635e-04
0	 0	 2.192969e-03
0	 0	 -2.192969e-03
0	 0	 5.835943e-04
0	 0	 -5.835943e-04
3.546772e-02	 8.405016e-03	 6.668641e-04
-8.444238e-04	 -1.719592e-02	 1.886790e-04
0	 0	 9.430882e-04
5.015893e-02	 1.188649e-02	 8.878088e-12
3.546772e-02	 8.405016e-03	 -6.668641e-04
0	 0	 -9.430882e-04
0	 0	 2.668324e-04
-1.194196e-03	 -2.431871e-02	 7.958974e-12
-8.444238e-04	 -1.719592e-02	 -1.886790e-04
0	 0	 -2.668323e-04
0	 0	 -1.699716e-03
-5.401308e-03	 -7.998413e-03	 -1.559157e-03
-9.934008e-03	 -1.451631e-02	 -1.201881e-03
-1.303991e-02	 -1.930988e-02	 -6.458238e-04
-1.404881e-02	 -2.052917e-02	 7.393630e-12
-1.303991e-02	 -1.930988e-02	 6.458238e-04
-9.934008e-03	 -1.451631e-02	 1.201881e-03
-5.401308e-03	 -7.998413e-03	 1.559157e-03
0	 0	 1.699716e-03
0	 0	 4.346082e-03
1.662333e-02	 -1.763904e-02	 3.986680e-03
3.036303e-02	 -3.215513e-02	 3.073144e-03
4.013227e-02	 -4.258440e-02	 1.651337e-03
4.293981e-02	 -4.547422e-02	 1.434758e-11
4.013227e-02	 -4.258440e-02	 -1.651337e-03
3.036303e-02	 -3.215513e-02	 -3.073144e-03
1.662333e-02	 -1.763904e-02	 -3.986680e-03
0	 0	 -4.346082e-03
-7.288403e-03	 -1.724098e-02	 -9.744404e-04
2.941398e-02	 -3.330634e-02	 2.491592e-03
0	 0	 -1.378067e-03
-7.288403e-03	 -1.724098e-02	 9.744404e-04
0	 0	 1.378067e-03
0	 0	 3.523643e-03
2.941398e-02	 -3.330634e-02	 -2.491592e-03
0	 0	 -3.523643e-03
-1.030736e-02	 -2.438243e-02	 7.880458e-12
4.159764e-02	 -4.710228e-02	 1.266188e-11
-2.613229e-03	 -1.082796e-02	 -9.682361e-04
-2.613229e-03	 -1.082796e-02	 9.682362e-04
0	 0	 -1.060474e-03
-6.598529e-03	 -2.813614e-02	 8.365812e-12
-4.665865e-03	 -1.989525e-02	 7.498683e-04
0	 0	 1.060474e-03
1.557785e-02	 -1.879056e-02	 2.475728e-03
1.557785e-02	 -1.879056e-02	 -2.475728e-03
-6.308893e-03	 -2.614102e-02	 4.010566e-04
3.760826e-02	 -4.536443e-02	 -1.025480e-03
-4.665865e-03	 -1.989525e-02	 -7.498683e-04
-6.308893e-03	 -2.614102e-02	 -4.010565e-04
0	 0	 2.711575e-03
4.019576e-02	 -4.861893e-02	 1.098166e-11
2.842269e-02	 -3.437878e-02	 -1.917373e-03
0	 0	 -2.711575e-03
2.842269e-02	 -3.437878e-02	 1.917373e-03
3.760826e-02	 -4.536443e-02	 1.025480e-03
2.742824e-02	 -3.544189e-02	 1.342358e-03
-2.048754e-03	 -2.253922e-02	 -5.249849e-04
0	 0	 -7.424408e-04
-2.897376e-03	 -3.187527e-02	 8.851695e-12
0	 0	 7.424408e-04
0	 0	 1.898381e-03
3.878939e-02	 -5.012240e-02	 9.299658e-12
0	 0	 -1.898381e-03
2.742824e-02	 -3.544189e-02	 -1.342358e-03
-2.048754e-03	 -2.253922e-02	 5.249849e-04
1.890150e-04	 -1.360646e-02	 3.757311e-04
1.445620e-02	 -1.985149e-02	 -9.607243e-04
0	 0	 -4.201957e-04
1.890150e-04	 -1.360646e-02	 -3.757311e-04
6.254150e-04	 -2.517874e-02	 -2.971233e-04
4.563226e-04	 -3.284889e-02	 -1.556329e-04
4.563226e-04	 -3.284889e-02	 1.556329e-04
0	 0	 4.201958e-04
6.254151e-04	 -2.517874e-02	 2.971233e-04
3.725728e-02	 -5.152921e-02	 7.602523e-12
0	 0	 1.074418e-03
1.445620e-02	 -1.985149e-02	 9.607243e-04
2.634487e-02	 -3.643666e-02	 7.597283e-04
3.490034e-02	 -4.792573e-02	 3.979451e-04
3.490034e-02	 -4.792573e-02	 -3.979450e-04
0	 0	 -1.074418e-03
8.844705e-04	 -3.560811e-02	 9.341245e-12
2.634487e-02	 -3.643666e-02	 -7.597283e-04
0	 0	 -5.523484e-03
-2.934584e-02	 -4.649960e-02	 -3.905693e-03
-4.150129e-02	 -6.576036e-02	 5.682812e-12
-2.934584e-02	 -4.649960e-02	 3.905693e-03
0	 0	 5.523484e-03
0	 0	 4.409003e-03
2.623427e-02	 -3.509915e-02	 3.117636e-03
3.710086e-02	 -4.963769e-02	 1.181657e-11
2.623427e-02	 -3.509915e-02	 -3.117636e-03
0	 0	 -4.409003e-03
-4.024609e-02	 -6.671979e-02	 7.467141e-12
-2.845828e-02	 -4.717802e-02	 2.491737e-03
0	 0	 2.819393e-03
0	 0	 -2.819393e-03
4.071117e-02	 -4.738342e-02	 9.431395e-12
2.878714e-02	 -3.350514e-02	 -1.993612e-03
-2.845828e-02	 -4.717802e-02	 -2.491737e-03
0	 0	 -3.523848e-03
0	 0	 3.523848e-03
2.878714e-02	 -3.350514e-02	 1.993612e-03
3.116749e-02	 -3.160232e-02	 8.726165e-04
-2.731954e-02	 -4.749687e-02	 -1.081928e-03
0	 0	 -1.530077e-03
-3.863566e-02	 -6.717072e-02	 9.256224e-12
-2.731954e-02	 -4.749687e-02	 1.081928e-03
0	 0	 1.530077e-03
0	 0	 1.234066e-03
4.407749e-02	 -4.469243e-02	 7.038993e-12
3.116749e-02	 -3.160232e-02	 -8.726165e-04
0	 0	 -1.234066e-03
-2.011796e-02	 -4.160694e-02	 -1.290761e-03
2.675580e-03	 5.049347e-03	 -8.192481e-05
0	 0	 -3.365639e-03
-1.513258e-02	 -3.152176e-02	 -2.379866e-03
-2.140070e-02	 -4.457851e-02	 4.488299e-12
-2.011796e-02	 -4.160694e-02	 1.290761e-03
0	 0	 3.365639e-03
0	 0	 -2.447321e-04
1.939253e-03	 3.796841e-03	 -1.730518e-04
2.742517e-03	 5.369544e-03	 8.045737e-12
2.675580e-03	 5.049347e-03	 8.192483e-05
1.939253e-03	 3.796841e-03	 1.730518e-04
1.108262e-03	 2.091508e-03	 1.977840e-04
0	 0	 2.447321e-04
-8.333131e-03	 -1.723416e-02	 -3.116172e-03
-1.513258e-02	 -3.152176e-02	 2.379866e-03
-8.333131e-03	 -1.723416e-02	 3.116172e-03
1.108262e-03	 2.091508e-03	 -1.977840e-04
-2.539830e-02	 -4.319041e-02	 5.534757e-12
8.009284e-03	 7.438269e-03	 7.636823e-12
-1.795931e-02	 -3.054023e-02	 -1.926362e-03
0	 0	 -2.724287e-03
-1.795931e-02	 -3.054023e-02	 1.926362e-03
0	 0	 2.724287e-03
0	 0	 -1.858906e-04
5.663419e-03	 5.259650e-03	 -1.314445e-04
5.663419e-03	 5.259650e-03	 1.314445e-04
0	 0	 1.858906e-04
-2.071023e-02	 -2.950571e-02	 1.479592e-03
9.320468e-03	 6.698818e-03	 8.945895e-05
1.211092e-02	 8.761871e-03	 -4.472971e-05
5.016508e-03	 3.629286e-03	 1.079871e-04
0	 0	 -2.092459e-03
-1.126510e-02	 -1.614764e-02	 -1.918098e-03
0	 0	 2.092459e-03
-2.928868e-02	 -4.172738e-02	 6.576024e-12
0	 0	 -1.265141e-04
5.016508e-03	 3.629286e-03	 -1.079871e-04
1.318113e-02	 9.473560e-03	 7.225381e-12
0	 0	 1.265141e-04
-2.719637e-02	 -3.898384e-02	 -7.945021e-04
-2.719637e-02	 -3.898384e-02	 7.945021e-04
-2.071023e-02	 -2.950571e-02	 -1.479592e-03
9.320468e-03	 6.698819e-03	 -8.945894e-05
1.211092e-02	 8.761871e-03	 4.472972e-05
-1.126510e-02	 -1.614764e-02	 1.918098e-03
-3.316740e-02	 -4.025618e-02	 7.620752e-12
-2.345290e-02	 -2.846542e-02	 1.032412e-03
1.296385e-02	 8.138651e-03	 4.675246e-05
0	 0	 -6.611795e-05
0	 0	 6.611796e-05
1.833366e-02	 1.150979e-02	 6.811764e-12
0	 0	 -1.460052e-03
0	 0	 1.460052e-03
-2.345290e-02	 -2.846542e-02	 -1.032412e-03
1.296385e-02	 8.138651e-03	 -4.675245e-05
-3.414355e-02	 -3.614204e-02	 -2.974160e-04
0	 0	 -8.184305e-04
-3.414355e-02	 -3.614204e-02	 2.974160e-04
0	 0	 8.184306e-04
-3.703275e-02	 -3.864120e-02	 8.673969e-12
0	 0	 -5.705022e-06
0	 0	 5.705032e-06
2.147830e-02	 1.246710e-02	 -6.549448e-06
2.147830e-02	 1.246710e-02	 6.549461e-06
8.896603e-03	 5.164043e-03	 1.581179e-05
-1.414272e-02	 -1.497052e-02	 -7.180257e-04
-2.618611e-02	 -2.732346e-02	 -5.787178e-04
-2.618611e-02	 -2.732346e-02	 5.787178e-04
-1.414272e-02	 -1.497052e-02	 7.180257e-04
2.354171e-02	 1.357184e-02	 6.399685e-12
8.896602e-03	 5.164043e-03	 -1.581178e-05
1.664650e-02	 9.596742e-03	 4.034070e-06
1.664650e-02	 9.596742e-03	 -4.034059e-06
-1.980680e-03	 1.349068e-02	 8.735230e-04
-6.682821e-03	 4.779310e-02	 -3.283447e-03
0	 0	 1.235348e-03
-2.801105e-03	 1.907871e-02	 4.010450e-12
0	 0	 -1.235348e-03
0	 0	 -4.643495e-03
-9.450935e-03	 6.758965e-02	 4.674762e-12
0	 0	 4.643495e-03
-1.980680e-03	 1.349068e-02	 -8.735230e-04
-6.682821e-03	 4.779310e-02	 3.283447e-03
-7.589052e-03	 1.455752e-02	 5.416044e-04
0	 0	 7.659443e-04
0	 0	 -7.659443e-04
-3.671583e-03	 4.844820e-02	 -2.041447e-03
-3.671583e-03	 4.844820e-02	 2.041447e-03
0	 0	 -2.887041e-03
0	 0	 2.887041e-03
-7.589052e-03	 1.455752e-02	 -5.416044e-04
-5.192402e-03	 6.851610e-02	 5.055928e-12
-1.073254e-02	 2.058744e-02	 6.167233e-12
-7.872321e-04	 6.889991e-02	 5.432725e-12
0	 0	 2.992228e-04
-1.875943e-02	 2.198135e-02	 8.333842e-12
0	 0	 -2.992228e-04
0	 0	 -1.136673e-03
0	 0	 1.136673e-03
-1.326492e-02	 1.554316e-02	 -2.115825e-04
-1.326492e-02	 1.554316e-02	 2.115825e-04
-5.566572e-04	 4.871960e-02	 -8.037493e-04
-5.566571e-04	 4.871960e-02	 8.037493e-04
0	 0	 4.429163e-03
-6.911651e-04	 2.610110e-02	 4.098732e-03
-1.239233e-03	 4.775628e-02	 3.131891e-03
-1.668620e-03	 6.301362e-02	 1.697750e-03
-1.752540e-03	 6.753758e-02	 4.318215e-12
-1.668620e-03	 6.301362e-02	 -1.697750e-03
-1.239233e-03	 4.775628e-02	 -3.131891e-03
-6.911651e-04	 2.610110e-02	 -4.098732e-03
0	 0	 -4.429163e-03
0	 0	 3.553118e-03
-4.102461e-03	 6.777357e-02	 5.357548e-12
0	 0	 -3.553118e-03
-2.900878e-03	 4.792315e-02	 -2.512434e-03
-2.900878e-03	 4.792315e-02	 2.512434e-03
-4.532482e-03	 4.798394e-02	 1.902193e-03
-5.891554e-03	 6.322642e-02	 1.019940e-03
0	 0	 2.690107e-03
-2.440361e-03	 2.618924e-02	 2.462354e-03
-5.891554e-03	 6.322642e-02	 -1.019940e-03
-2.440361e-03	 2.618924e-02	 -2.462354e-03
0	 0	 -2.690107e-03
-6.409898e-03	 6.785954e-02	 6.397959e-12
-4.532482e-03	 4.798394e-02	 -1.902193e-03
-8.711995e-03	 6.791615e-02	 7.441104e-12
-6.160311e-03	 4.802397e-02	 -1.290047e-03
0	 0	 1.824401e-03
-6.160311e-03	 4.802397e-02	 1.290047e-03
0	 0	 -1.824401e-03
0	 0	 9.462092e-04
-4.180092e-03	 2.612588e-02	 8.200850e-04
-1.009163e-02	 6.307346e-02	 3.396903e-04
-1.104170e-02	 6.778448e-02	 8.489116e-12
-1.009163e-02	 6.307346e-02	 -3.396903e-04
-7.807662e-03	 4.793086e-02	 -6.690709e-04
-4.180092e-03	 2.612588e-02	 -8.200850e-04
0	 0	 -9.462092e-04
-7.807662e-03	 4.793086e-02	 6.690710e-04
-7.807662e-03	 4.793086e-02	 -6.690710e-04
0	 0	 -9.462092e-04
-4.180092e-03	 2.612588e-02	 -8.200850e-04
-1.009163e-02	 6.307346e-02	 -3.396903e-04
-1.104170e-02	 6.778448e-02	 4.322941e-12
-1.009163e-02	 6.307346e-02	 3.396903e-04
-7.807662e-03	 4.793086e-02	 6.690710e-04
-4.180092e-03	 2.612588e-02	 8.200850e-04
0	 0	 9.462092e-04
0	 0	 -1.824401e-03
-6.160311e-03	 4.802397e-02	 -1.290047e-03
0	 0	 1.824401e-03
-8.711995e-03	 6.791615e-02	 3.928673e-12
-6.160311e-03	 4.802397e-02	 1.290047e-03
-6.409898e-03	 6.785954e-02	 3.541218e-12
-4.532482e-03	 4.798394e-02	 1.902193e-03
0	 0	 -2.690107e-03
-2.440361e-03	 2.618924e-02	 -2.462354e-03
-5.891554e-03	 6.322642e-02	 1.019940e-03
-2.440361e-03	 2.618924e-02	 2.462354e-03
0	 0	 2.690107e-03
-4.532482e-03	 4.798394e-02	 -1.902193e-03
-5.891554e-03	 6.322642e-02	 -1.019940e-03
-2.900878e-03	 4.792315e-02	 -2.512434e-03
-2.900878e-03	 4.792315e-02	 2.512434e-03
0	 0	 -3.553118e-03
-4.102461e-03	 6.777357e-02	 3.153429e-12
0	 0	 3.553118e-03
0	 0	 -4.429163e-03
-6.911651e-04	 2.610110e-02	 -4.098732e-03
-1.239233e-03	 4.775628e-02	 -3.131891e-03
-1.668620e-03	 6.301362e-02	 -1.697750e-03
-1.752540e-03	 6.753758e-02	 2.761270e-12
-1.668620e-03	 6.301362e-02	 1.697750e-03
-1.239233e-03	 4.775628e-02	 3.131891e-03
-6.911651e-04	 2.610110e-02	 4.098732e-03
0	 0	 4.429163e-03
-5.566572e-04	 4.871960e-02	 8.037493e-04
-5.566572e-04	 4.871960e-02	 -8.037493e-04
-1.326492e-02	 1.554316e-02	 -2.115825e-04
-1.326492e-02	 1.554316e-02	 2.115825e-04
0	 0	 1.136673e-03
0	 0	 -1.136673e-03
0	 0	 -2.992228e-04
-1.875943e-02	 2.198135e-02	 3.314487e-12
0	 0	 2.992228e-04
-7.872321e-04	 6.889991e-02	 8.343642e-12
-1.073254e-02	 2.058744e-02	 2.401789e-12
-5.192402e-03	 6.851610e-02	 6.440141e-12
-7.589052e-03	 1.455752e-02	 5.416044e-04
0	 0	 2.887041e-03
0	 0	 -2.887041e-03
-3.671583e-03	 4.844820e-02	 2.041447e-03
-3.671583e-03	 4.844820e-02	 -2.041447e-03
0	 0	 -7.659443e-04
0	 0	 7.659443e-04
-7.589052e-03	 1.455752e-02	 -5.416044e-04
-6.682821e-03	 4.779310e-02	 -3.283447e-03
-1.980680e-03	 1.349068e-02	 8.735230e-04
0	 0	 4.643495e-03
-9.450935e-03	 6.758965e-02	 4.550340e-12
0	 0	 -4.643495e-03
0	 0	 -1.235348e-03
-2.801105e-03	 1.907871e-02	 1.495701e-12
0	 0	 1.235348e-03
-6.682821e-03	 4.779310e-02	 3.283447e-03
-1.980680e-03	 1.349068e-02	 -8.735230e-04
1.664650e-02	 9.596742e-03	 4.034067e-06
1.664650e-02	 9.596742e-03	 -4.034057e-06
8.896602e-03	 5.164043e-03	 1.581179e-05
2.354171e-02	 1.357184e-02	 7.632538e-12
-1.414272e-02	 -1.497052e-02	 7.180257e-04
-2.618611e-02	 -2.732346e-02	 5.787178e-04
-2.618611e-02	 -2.732346e-02	 -5.787178e-04
-1.414272e-02	 -1.497052e-02	 -7.180257e-04
2.147830e-02	 1.246710e-02	 6.549460e-06
2.147830e-02	 1.246710e-02	 -6.549448e-06
8.896603e-03	 5.164043e-03	 -1.581178e-05
0	 0	 5.705032e-06
0	 0	 -5.705022e-06
-3.703275e-02	 -3.864120e-02	 2.793637e-12
0	 0	 8.184306e-04
-3.414355e-02	 -3.614204e-02	 -2.974160e-04
0	 0	 -8.184306e-04
-3.414355e-02	 -3.614204e-02	 2.974160e-04
1.296385e-02	 8.138651e-03	 4.675246e-05
-2.345290e-02	 -2.846542e-02	 1.032412e-03
0	 0	 1.460052e-03
0	 0	 -1.460052e-03
1.833366e-02	 1.150979e-02	 6.606144e-12
0	 0	 6.611796e-05
0	 0	 -6.611795e-05
1.296385e-02	 8.138651e-03	 -4.675244e-05
-2.345290e-02	 -2.846542e-02	 -1.032412e-03
-3.316740e-02	 -4.025618e-02	 2.192922e-12
-1.126510e-02	 -1.614764e-02	 -1.918098e-03
9.320468e-03	 6.698819e-03	 8.945895e-05
1.211092e-02	 8.761871e-03	 -4.472971e-05
-2.071023e-02	 -2.950571e-02	 1.479592e-03
-2.719637e-02	 -3.898384e-02	 -7.945021e-04
-2.719637e-02	 -3.898384e-02	 7.945021e-04
0	 0	 1.265141e-04
5.016508e-03	 3.629286e-03	 1.079871e-04
1.318113e-02	 9.473560e-03	 5.587889e-12
0	 0	 -1.265141e-04
-2.928868e-02	 -4.172738e-02	 1.589317e-12
0	 0	 2.092459e-03
-1.126510e-02	 -1.614764e-02	 1.918098e-03
0	 0	 -2.092459e-03
1.211092e-02	 8.761871e-03	 4.472972e-05
5.016508e-03	 3.629286e-03	 -1.079871e-04
9.320468e-03	 6.698819e-03	 -8.945894e-05
-2.071023e-02	 -2.950571e-02	 -1.479592e-03
0	 0	 1.858906e-04
5.663419e-03	 5.259651e-03	 1.314445e-04
5.663419e-03	 5.259650e-03	 -1.314445e-04
0	 0	 -1.858906e-04
0	 0	 2.724287e-03
-1.795931e-02	 -3.054023e-02	 -1.926362e-03
0	 0	 -2.724287e-03
-1.795931e-02	 -3.054023e-02	 1.926362e-03
8.009284e-03	 7.438269e-03	 4.571084e-12
-2.539830e-02	 -4.319041e-02	 9.881341e-13
1.108262e-03	 2.091508e-03	 1.977840e-04
-8.333131e-03	 -1.723416e-02	 3.116172e-03
-1.513258e-02	 -3.152176e-02	 -2.379866e-03
-8.333131e-03	 -1.723416e-02	 -3.116172e-03
0	 0	 2.447322e-04
1.939253e-03	 3.796841e-03	 1.730518e-04
2.742517e-03	 5.369544e-03	 3.552423e-12
2.675580e-03	 5.049347e-03	 -8.192481e-05
1.939253e-03	 3.796841e-03	 -1.730518e-04
1.108262e-03	 2.091508e-03	 -1.977840e-04
0	 0	 -2.447321e-04
0	 0	 3.365639e-03
-1.513258e-02	 -3.152176e-02	 2.379866e-03
-2.140070e-02	 -4.457851e-02	 3.934123e-13
-2.011796e-02	 -4.160694e-02	 -1.290761e-03
0	 0	 -3.365639e-03
2.675580e-03	 5.049347e-03	 8.192482e-05
-2.011796e-02	 -4.160694e-02	 1.290761e-03
0	 0	 -1.234066e-03
4.407749e-02	 -4.469243e-02	 6.602962e-12
3.116749e-02	 -3.160232e-02	 8.726165e-04
0	 0	 1.234066e-03
0	 0	 1.530077e-03
-3.863566e-02	 -6.717072e-02	 2.124459e-12
-2.731954e-02	 -4.749687e-02	 -1.081928e-03
0	 0	 -1.530077e-03