# vtk DataFile Version 3.0
Unstructured Grid Example
ASCII
DATASET UNSTRUCTURED_GRID
POINTS 832 float
-1	 0	 0
-1	 0	 3.750000e-01
-1	 0	 7.500000e-01
-1	 0	 1.125000e+00
-1	 0	 1.500000e+00
-1	 0	 1.875000e+00
-1	 0	 2.250000e+00
-1	 0	 2.625000e+00
-1	 0	 3
-9.875000e-01	 0	 0
-9.875000e-01	 0	 1.500000e+00
-9.875000e-01	 0	 3
-9.875000e-01	 0	 2.250000e+00
-9.875000e-01	 0	 7.500000e-01
-9.833054e-01	 -1.819631e-01	 7.500000e-01
-9.833054e-01	 -1.819631e-01	 0
-9.833054e-01	 -1.819631e-01	 1.500000e+00
-9.833054e-01	 -1.819631e-01	 3.000000e+00
-9.833054e-01	 1.819631e-01	 2.250000e+00
-9.833054e-01	 1.819631e-01	 0
-9.833054e-01	 1.819631e-01	 1.500000e+00
-9.833054e-01	 1.819631e-01	 3.000000e+00
-9.833054e-01	 1.819631e-01	 7.500000e-01
-9.833054e-01	 -1.819631e-01	 2.250000e+00
-9.750000e-01	 0	 7.500000e-01
-9.750000e-01	 0	 1.125000e+00
-9.750000e-01	 0	 0
-9.750000e-01	 0	 3.750000e-01
-9.750000e-01	 0	 1.875000e+00
-9.750000e-01	 0	 2.625000e+00
-9.750000e-01	 0	 3
-9.750000e-01	 0	 1.500000e+00
-9.750000e-01	 0	 2.250000e+00
-9.625000e-01	 0	 1.500000e+00
-9.625000e-01	 0	 2.250000e+00
-9.625000e-01	 0	 0
-9.625000e-01	 0	 7.500000e-01
-9.625000e-01	 0	 3
-9.587227e-01	 -1.774140e-01	 0
-9.587227e-01	 -1.774140e-01	 3.000000e+00
-9.587227e-01	 -1.774140e-01	 1.500000e+00
-9.587227e-01	 1.774140e-01	 0
-9.587227e-01	 1.774140e-01	 3.000000e+00
-9.587227e-01	 1.774140e-01	 1.500000e+00
-9.587227e-01	 1.774140e-01	 7.500000e-01
-9.587227e-01	 -1.774140e-01	 7.500000e-01
-9.587227e-01	 -1.774140e-01	 2.250000e+00
-9.587227e-01	 1.774140e-01	 2.250000e+00
-9.500000e-01	 0	 0
-9.500000e-01	 0	 3.750000e-01
-9.500000e-01	 0	 1.125000e+00
-9.500000e-01	 0	 1.500000e+00
-9.500000e-01	 0	 1.875000e+00
-9.500000e-01	 0	 2.250000e+00
-9.500000e-01	 0	 2.625000e+00
-9.500000e-01	 0	 3
-9.500000e-01	 0	 7.500000e-01
-9.341401e-01	 -1.728649e-01	 1.500000e+00
-9.341401e-01	 -1.728649e-01	 0
-9.341401e-01	 -1.728649e-01	 3.000000e+00
-9.341401e-01	 1.728649e-01	 2.250000e+00
-9.341401e-01	 1.728649e-01	 0
-9.341401e-01	 1.728649e-01	 1.500000e+00
-9.341401e-01	 1.728649e-01	 3.000000e+00
-9.341401e-01	 -1.728649e-01	 7.500000e-01
-9.341401e-01	 -1.728649e-01	 2.250000e+00
-9.341401e-01	 1.728649e-01	 7.500000e-01
-9.297883e-01	 -3.680947e-01	 1.125000e+00
-9.297883e-01	 -3.680947e-01	 0
-9.297883e-01	 -3.680947e-01	 7.500000e-01
-9.297883e-01	 -3.680947e-01	 1.500000e+00
-9.297883e-01	 -3.680947e-01	 1.875000e+00
-9.297883e-01	 -3.680947e-01	 2.250000e+00
-9.297883e-01	 -3.680947e-01	 2.625000e+00
-9.297883e-01	 -3.680947e-01	 3.000000e+00
-9.297883e-01	 -3.680947e-01	 3.750000e-01
-9.297883e-01	 3.680947e-01	 3.750000e-01
-9.297883e-01	 3.680947e-01	 2.250000e+00
-9.297883e-01	 3.680947e-01	 2.625000e+00
-9.297883e-01	 3.680947e-01	 0
-9.297883e-01	 3.680947e-01	 7.500000e-01
-9.297883e-01	 3.680947e-01	 1.500000e+00
-9.297883e-01	 3.680947e-01	 1.875000e+00
-9.297883e-01	 3.680947e-01	 3.000000e+00
-9.297883e-01	 3.680947e-01	 1.125000e+00
-9.181659e-01	 3.634935e-01	 7.500000e-01
-9.181659e-01	 -3.634935e-01	 0
-9.181659e-01	 -3.634935e-01	 7.500000e-01
-9.181659e-01	 -3.634935e-01	 2.250000e+00
-9.181659e-01	 -3.634935e-01	 3
-9.181659e-01	 3.634935e-01	 0
-9.181659e-01	 3.634935e-01	 2.250000e+00
-9.181659e-01	 3.634935e-01	 3
-9.181659e-01	 -3.634935e-01	 1.500000e+00
-9.181659e-01	 3.634935e-01	 1.500000e+00
-9.065436e-01	 -3.588923e-01	 1.125000e+00
-9.065436e-01	 -3.588923e-01	 2.625000e+00
-9.065436e-01	 -3.588923e-01	 0
-9.065436e-01	 -3.588923e-01	 3.750000e-01
-9.065436e-01	 -3.588923e-01	 1.500000e+00
-9.065436e-01	 -3.588923e-01	 3
-9.065436e-01	 3.588923e-01	 2.625000e+00
-9.065436e-01	 3.588923e-01	 1.125000e+00
-9.065436e-01	 3.588923e-01	 0
-9.065436e-01	 3.588923e-01	 3.750000e-01
-9.065436e-01	 3.588923e-01	 3
-9.065436e-01	 -3.588923e-01	 7.500000e-01
-9.065436e-01	 -3.588923e-01	 1.875000e+00
-9.065436e-01	 3.588923e-01	 1.875000e+00
-9.065436e-01	 3.588923e-01	 1.500000e+00
-9.065436e-01	 -3.588923e-01	 2.250000e+00
-9.065436e-01	 3.588923e-01	 7.500000e-01
-9.065436e-01	 3.588923e-01	 2.250000e+00
-8.949212e-01	 3.542912e-01	 1.500000e+00
-8.949212e-01	 -3.542912e-01	 1.500000e+00
-8.949212e-01	 -3.542912e-01	 0
-8.949212e-01	 -3.542912e-01	 3.000000e+00
-8.949212e-01	 3.542912e-01	 0
-8.949212e-01	 3.542912e-01	 3.000000e+00
-8.949212e-01	 -3.542912e-01	 2.250000e+00
-8.949212e-01	 -3.542912e-01	 7.500000e-01
-8.949212e-01	 3.542912e-01	 2.250000e+00
-8.949212e-01	 3.542912e-01	 7.500000e-01
-8.832989e-01	 -3.496900e-01	 1.125000e+00
-8.832989e-01	 -3.496900e-01	 1.875000e+00
-8.832989e-01	 -3.496900e-01	 2.625000e+00
-8.832989e-01	 -3.496900e-01	 2.250000e+00
-8.832989e-01	 3.496900e-01	 1.125000e+00
-8.832989e-01	 -3.496900e-01	 0
-8.832989e-01	 -3.496900e-01	 3.000000e+00
-8.832989e-01	 -3.496900e-01	 3.750000e-01
-8.832989e-01	 -3.496900e-01	 7.500000e-01
-8.832989e-01	 3.496900e-01	 3.750000e-01
-8.832989e-01	 3.496900e-01	 7.500000e-01
-8.832989e-01	 3.496900e-01	 2.250000e+00
-8.832989e-01	 3.496900e-01	 2.625000e+00
-8.832989e-01	 3.496900e-01	 0
-8.832989e-01	 3.496900e-01	 1.875000e+00
-8.832989e-01	 3.496900e-01	 3.000000e+00
-8.832989e-01	 -3.496900e-01	 1.500000e+00
-8.832989e-01	 3.496900e-01	 1.500000e+00
-8.369955e-01	 -5.472098e-01	 0
-8.369955e-01	 -5.472098e-01	 7.500000e-01
-8.369955e-01	 -5.472098e-01	 1.500000e+00
-8.369955e-01	 -5.472098e-01	 2.250000e+00
-8.369955e-01	 -5.472098e-01	 3
-8.369955e-01	 5.472098e-01	 0
-8.369955e-01	 5.472098e-01	 7.500000e-01
-8.369955e-01	 5.472098e-01	 1.500000e+00
-8.369955e-01	 5.472098e-01	 2.250000e+00
-8.369955e-01	 5.472098e-01	 3
-8.160706e-01	 -5.335295e-01	 7.500000e-01
-8.160706e-01	 5.335295e-01	 7.500000e-01
-8.160706e-01	 -5.335295e-01	 1.500000e+00
-8.160706e-01	 -5.335295e-01	 2.250000e+00
-8.160706e-01	 5.335295e-01	 1.500000e+00
-8.160706e-01	 5.335295e-01	 2.250000e+00
-8.160706e-01	 -5.335295e-01	 0
-8.160706e-01	 -5.335295e-01	 3.000000e+00
-8.160706e-01	 5.335295e-01	 0
-8.160706e-01	 5.335295e-01	 3.000000e+00
-7.951457e-01	 -5.198493e-01	 7.500000e-01
-7.951457e-01	 5.198493e-01	 7.500000e-01
-7.951457e-01	 -5.198493e-01	 0
-7.951457e-01	 -5.198493e-01	 1.500000e+00
-7.951457e-01	 -5.198493e-01	 2.250000e+00
-7.951457e-01	 -5.198493e-01	 3
-7.951457e-01	 5.198493e-01	 0
-7.951457e-01	 5.198493e-01	 1.500000e+00
-7.951457e-01	 5.198493e-01	 2.250000e+00
-7.951457e-01	 5.198493e-01	 3
-7.071068e-01	 -7.071068e-01	 0
-7.071068e-01	 -7.071068e-01	 3.750000e-01
-7.071068e-01	 -7.071068e-01	 7.500000e-01
-7.071068e-01	 -7.071068e-01	 1.125000e+00
-7.071068e-01	 -7.071068e-01	 1.500000e+00
-7.071068e-01	 -7.071068e-01	 1.875000e+00
-7.071068e-01	 -7.071068e-01	 2.250000e+00
-7.071068e-01	 -7.071068e-01	 2.625000e+00
-7.071068e-01	 -7.071068e-01	 3.000000e+00
-7.071068e-01	 7.071068e-01	 0
-7.071068e-01	 7.071068e-01	 3.750000e-01
-7.071068e-01	 7.071068e-01	 7.500000e-01
-7.071068e-01	 7.071068e-01	 1.125000e+00
-7.071068e-01	 7.071068e-01	 1.500000e+00
-7.071068e-01	 7.071068e-01	 1.875000e+00
-7.071068e-01	 7.071068e-01	 2.250000e+00
-7.071068e-01	 7.071068e-01	 2.625000e+00
-7.071068e-01	 7.071068e-01	 3.000000e+00
-6.982679e-01	 -6.982679e-01	 7.500000e-01
-6.982679e-01	 6.982679e-01	 7.500000e-01
-6.982679e-01	 -6.982679e-01	 0
-6.982679e-01	 -6.982679e-01	 2.250000e+00
-6.982679e-01	 -6.982679e-01	 3.000000e+00
-6.982679e-01	 6.982679e-01	 0
-6.982679e-01	 6.982679e-01	 2.250000e+00
-6.982679e-01	 6.982679e-01	 3.000000e+00
-6.982679e-01	 -6.982679e-01	 1.500000e+00
-6.982679e-01	 6.982679e-01	 1.500000e+00
-6.894291e-01	 -6.894291e-01	 3.750000e-01
-6.894291e-01	 -6.894291e-01	 2.625000e+00
-6.894291e-01	 -6.894291e-01	 0
-6.894291e-01	 -6.894291e-01	 1.500000e+00
-6.894291e-01	 -6.894291e-01	 2.250000e+00
-6.894291e-01	 -6.894291e-01	 3.000000e+00
-6.894291e-01	 6.894291e-01	 3.750000e-01
-6.894291e-01	 6.894291e-01	 2.625000e+00
-6.894291e-01	 -6.894291e-01	 1.875000e+00
-6.894291e-01	 6.894291e-01	 1.875000e+00
-6.894291e-01	 -6.894291e-01	 7.500000e-01
-6.894291e-01	 -6.894291e-01	 1.125000e+00
-6.894291e-01	 6.894291e-01	 0
-6.894291e-01	 6.894291e-01	 1.500000e+00
-6.894291e-01	 6.894291e-01	 2.250000e+00
-6.894291e-01	 6.894291e-01	 3.000000e+00
-6.894291e-01	 6.894291e-01	 7.500000e-01
-6.894291e-01	 6.894291e-01	 1.125000e+00
-6.805903e-01	 6.805903e-01	 7.500000e-01
-6.805903e-01	 -6.805903e-01	 7.500000e-01
-6.805903e-01	 -6.805903e-01	 0
-6.805903e-01	 -6.805903e-01	 1.500000e+00
-6.805903e-01	 -6.805903e-01	 3.000000e+00
-6.805903e-01	 6.805903e-01	 0
-6.805903e-01	 6.805903e-01	 1.500000e+00
-6.805903e-01	 6.805903e-01	 3.000000e+00
-6.805903e-01	 6.805903e-01	 2.250000e+00
-6.805903e-01	 -6.805903e-01	 2.250000e+00
-6.717514e-01	 -6.717514e-01	 2.625000e+00
-6.717514e-01	 6.717514e-01	 2.625000e+00
-6.717514e-01	 -6.717514e-01	 0
-6.717514e-01	 -6.717514e-01	 3.750000e-01
-6.717514e-01	 -6.717514e-01	 7.500000e-01
-6.717514e-01	 -6.717514e-01	 1.125000e+00
-6.717514e-01	 -6.717514e-01	 1.875000e+00
-6.717514e-01	 -6.717514e-01	 3.000000e+00
-6.717514e-01	 -6.717514e-01	 2.250000e+00
-6.717514e-01	 6.717514e-01	 1.500000e+00
-6.717514e-01	 6.717514e-01	 0
-6.717514e-01	 6.717514e-01	 3.750000e-01
-6.717514e-01	 6.717514e-01	 7.500000e-01
-6.717514e-01	 6.717514e-01	 1.125000e+00
-6.717514e-01	 6.717514e-01	 1.875000e+00
-6.717514e-01	 6.717514e-01	 3.000000e+00
-6.717514e-01	 -6.717514e-01	 1.500000e+00
-6.717514e-01	 6.717514e-01	 2.250000e+00
-5.472098e-01	 -8.369955e-01	 0
-5.472098e-01	 -8.369955e-01	 7.500000e-01
-5.472098e-01	 -8.369955e-01	 1.500000e+00
-5.472098e-01	 -8.369955e-01	 2.250000e+00
-5.472098e-01	 -8.369955e-01	 3
-5.472098e-01	 8.369955e-01	 0
-5.472098e-01	 8.369955e-01	 7.500000e-01
-5.472098e-01	 8.369955e-01	 1.500000e+00
-5.472098e-01	 8.369955e-01	 2.250000e+00
-5.472098e-01	 8.369955e-01	 3
-5.335295e-01	 -8.160706e-01	 1.500000e+00
-5.335295e-01	 -8.160706e-01	 2.250000e+00
-5.335295e-01	 8.160706e-01	 0
-5.335295e-01	 8.160706e-01	 3.000000e+00
[...]
POINT_DATA 832
VECTORS displacement float
0	 0	 -1.338945e-10
-6.711759e-10	 -7.712281e-03	 -9.219052e-11
-9.051151e-10	 -1.089529e-02	 -5.747159e-12
-6.658427e-10	 -7.712281e-03	 7.985740e-11
6.433099e-12	 -6.207146e-12	 1.202056e-10
6.754986e-10	 7.712281e-03	 7.893198e-11
9.091717e-10	 1.089529e-02	 -5.608336e-12
6.713439e-10	 7.712281e-03	 -9.017307e-11
0	 0	 -1.308749e-10
0	 0	 -1.079616e-10
6.478198e-12	 -2.902938e-12	 9.432552e-11
0	 0	 -1.049700e-10
9.135603e-10	 1.509348e-02	 -5.543354e-12
-9.095269e-10	 -1.509348e-02	 -5.850987e-12
-4.956034e-02	 -1.732539e-02	 -5.006340e-12
0	 0	 -7.140787e-03
4.142961e-11	 -3.516640e-15	 7.140787e-03
0	 0	 -7.140787e-03
-4.956033e-02	 1.732539e-02	 -3.615684e-12
0	 0	 7.140787e-03
-3.190940e-11	 -4.704800e-13	 -7.140787e-03
0	 0	 7.140787e-03
4.956033e-02	 -1.732539e-02	 -6.945395e-12
4.956034e-02	 1.732539e-02	 -7.254816e-12
-9.122209e-10	 -1.924339e-02	 -5.953279e-12
-6.681284e-10	 -1.350336e-02	 4.611476e-11
0	 0	 -8.229398e-11
-6.734726e-10	 -1.350336e-02	 -5.869786e-11
6.778140e-10	 1.350336e-02	 4.558560e-11
6.736714e-10	 1.350336e-02	 -5.657632e-11
0	 0	 -7.932993e-11
6.504612e-12	 3.622152e-13	 6.871151e-11
9.162368e-10	 1.924339e-02	 -5.478686e-12
6.530006e-12	 3.606565e-12	 4.305167e-11
9.186943e-10	 2.335584e-02	 -5.413506e-12
0	 0	 -5.658052e-11
-9.147059e-10	 -2.335584e-02	 -6.054383e-12
0	 0	 -5.364056e-11
0	 0	 -4.302930e-03
0	 0	 -4.302930e-03
4.097948e-11	 2.812355e-12	 4.302930e-03
0	 0	 4.302930e-03
0	 0	 4.302930e-03
-3.126401e-11	 3.383639e-12	 -4.302930e-03
4.877227e-02	 -2.209022e-02	 -6.643011e-12
-4.877227e-02	 -2.209022e-02	 -5.501700e-12
4.877227e-02	 2.209022e-02	 -6.790381e-12
-4.877227e-02	 2.209022e-02	 -4.023796e-12
0	 0	 -3.056227e-11
-6.724631e-10	 -1.926357e-02	 -2.507505e-11
-6.671489e-10	 -1.926357e-02	 1.224227e-11
6.536135e-12	 6.884109e-12	 1.708793e-11
6.768085e-10	 1.926357e-02	 1.211194e-11
9.191384e-10	 2.752648e-02	 -5.347847e-12
6.727134e-10	 1.926357e-02	 -2.284972e-11
0	 0	 -2.764799e-11
-9.151718e-10	 -2.752648e-02	 -6.157663e-12
4.025227e-11	 5.592216e-12	 1.465987e-03
0	 0	 -1.465987e-03
0	 0	 -1.465987e-03
-4.764737e-02	 2.684831e-02	 -4.430995e-12
0	 0	 1.465987e-03
-3.041587e-11	 7.234481e-12	 -1.465987e-03
0	 0	 1.465987e-03
-4.764737e-02	 -2.684831e-02	 -5.993547e-12
4.764737e-02	 2.684831e-02	 -6.328884e-12
4.764737e-02	 -2.684831e-02	 -6.341000e-12
-4.771884e-02	 -1.957815e-02	 6.509478e-03
0	 0	 -9.764911e-03
-6.417473e-02	 -2.618841e-02	 -5.818218e-12
4.644680e-11	 5.041718e-12	 9.764911e-03
4.771884e-02	 1.957815e-02	 6.509478e-03
6.417473e-02	 2.618841e-02	 -6.873643e-12
4.771884e-02	 1.957815e-02	 -6.509478e-03
0	 0	 -9.764911e-03
-4.771884e-02	 -1.957815e-02	 -6.509478e-03
4.771884e-02	 -1.957815e-02	 6.509478e-03
-6.417473e-02	 2.618841e-02	 -2.778984e-12
-4.771884e-02	 1.957815e-02	 6.509478e-03
0	 0	 9.764911e-03
6.417473e-02	 -2.618841e-02	 -7.118138e-12
-4.870048e-11	 7.742922e-12	 -9.764911e-03
-4.771884e-02	 1.957815e-02	 -6.509478e-03
0	 0	 9.764911e-03
4.771884e-02	 -1.957815e-02	 -6.509478e-03
6.441640e-02	 -2.648645e-02	 -6.872564e-12
0	 0	 -7.761037e-03
-6.441640e-02	 -2.648645e-02	 -5.929361e-12
6.441640e-02	 2.648645e-02	 -6.753648e-12
0	 0	 -7.761037e-03
0	 0	 7.761037e-03
-6.441640e-02	 2.648645e-02	 -3.091444e-12
0	 0	 7.761037e-03
4.680823e-11	 4.485220e-12	 7.761037e-03
-4.869535e-11	 8.132378e-12	 -7.761037e-03
-4.780974e-02	 -1.979979e-02	 3.948950e-03
4.780974e-02	 1.979979e-02	 -3.948950e-03
0	 0	 -5.776681e-03
-4.780974e-02	 -1.979979e-02	 -3.948950e-03
4.709840e-11	 3.902246e-12	 5.776681e-03
0	 0	 -5.776681e-03
-4.780974e-02	 1.979979e-02	 3.948950e-03
4.780974e-02	 -1.979979e-02	 -3.948950e-03
0	 0	 5.776681e-03
4.780974e-02	 -1.979979e-02	 3.948950e-03
0	 0	 5.776681e-03
-6.453966e-02	 -2.673981e-02	 -6.037513e-12
4.780974e-02	 1.979979e-02	 3.948950e-03
-4.780974e-02	 1.979979e-02	 -3.948950e-03
-4.862544e-11	 8.507719e-12	 -5.776681e-03
6.453966e-02	 2.673981e-02	 -6.635679e-12
6.453966e-02	 -2.673981e-02	 -6.627260e-12
-6.453966e-02	 2.673981e-02	 -3.401461e-12
-4.854998e-11	 8.870861e-12	 -3.790729e-03
4.736193e-11	 3.329628e-12	 3.790729e-03
0	 0	 -3.790729e-03
0	 0	 -3.790729e-03
0	 0	 3.790729e-03
0	 0	 3.790729e-03
6.466233e-02	 2.699572e-02	 -6.518106e-12
-6.466233e-02	 -2.699572e-02	 -6.146847e-12
-6.466233e-02	 2.699572e-02	 -3.713319e-12
6.466233e-02	 -2.699572e-02	 -6.380388e-12
-4.768239e-02	 -1.993926e-02	 1.379515e-03
4.768239e-02	 1.993926e-02	 1.379515e-03
4.768239e-02	 1.993926e-02	 -1.379516e-03
6.464581e-02	 2.719364e-02	 -6.398354e-12
4.768239e-02	 -1.993926e-02	 -1.379516e-03
0	 0	 -1.781466e-03
0	 0	 -1.781466e-03
-4.768239e-02	 -1.993926e-02	 -1.379516e-03
-6.464581e-02	 -2.719364e-02	 -6.258428e-12
4.768239e-02	 -1.993926e-02	 1.379515e-03
6.464581e-02	 -2.719364e-02	 -6.132449e-12
-6.464581e-02	 2.719364e-02	 -4.028074e-12
-4.768239e-02	 1.993926e-02	 1.379515e-03
0	 0	 1.781466e-03
-4.768239e-02	 1.993926e-02	 -1.379516e-03
0	 0	 1.781466e-03
4.754360e-11	 2.710487e-12	 1.781466e-03
-4.839799e-11	 9.202677e-12	 -1.781466e-03
0	 0	 -7.835776e-03
-5.028943e-02	 -2.430343e-02	 -7.656399e-12
2.208438e-11	 -4.109471e-12	 7.835776e-03
5.028943e-02	 2.430343e-02	 -5.174470e-12
0	 0	 -7.835776e-03
0	 0	 7.835776e-03
5.028944e-02	 -2.430343e-02	 -6.299381e-12
-4.058810e-11	 6.976998e-12	 -7.835776e-03
-5.028944e-02	 2.430343e-02	 -2.642769e-12
0	 0	 7.835776e-03
-5.279841e-02	 -2.063686e-02	 -7.368290e-12
5.279841e-02	 -2.063686e-02	 -5.751334e-12
2.470957e-11	 -8.124635e-12	 4.816778e-03
5.279841e-02	 2.063686e-02	 -5.473390e-12
-4.199377e-11	 4.942411e-12	 -4.816778e-03
-5.279841e-02	 2.063686e-02	 -3.236366e-12
0	 0	 -4.816778e-03
0	 0	 -4.816778e-03
0	 0	 4.816778e-03
0	 0	 4.816778e-03
-5.507218e-02	 -1.674907e-02	 -7.076340e-12
5.507218e-02	 -1.674907e-02	 -5.204583e-12
0	 0	 -1.800643e-03
2.721185e-11	 -1.227332e-11	 1.800643e-03
5.507218e-02	 1.674907e-02	 -5.777249e-12
0	 0	 -1.800643e-03
0	 0	 1.800643e-03
-4.324360e-11	 2.780158e-12	 -1.800643e-03
-5.507218e-02	 1.674907e-02	 -3.829261e-12
0	 0	 1.800643e-03
0	 0	 1.131210e-10
-5.581497e-03	 5.581498e-03	 7.115770e-11
-7.810858e-03	 7.810860e-03	 -1.105984e-11
-5.581497e-03	 5.581497e-03	 -9.133628e-11
-1.671489e-11	 -3.432552e-11	 -1.298428e-10
5.581497e-03	 -5.581498e-03	 -8.554804e-11
7.810858e-03	 -7.810860e-03	 -2.061577e-12
5.581497e-03	 -5.581498e-03	 7.928913e-11
0	 0	 1.198747e-10
0	 0	 1.098078e-10
5.581497e-03	 5.581497e-03	 7.173997e-11
7.810860e-03	 7.810858e-03	 -3.871051e-12
5.581497e-03	 5.581497e-03	 -7.892628e-11
-1.391236e-11	 -1.181988e-11	 -1.161790e-10
-5.581497e-03	 -5.581497e-03	 -7.826296e-11
-7.810860e-03	 -7.810858e-03	 -3.734838e-12
-5.581497e-03	 -5.581497e-03	 7.003048e-11
0	 0	 1.069071e-10
-1.063302e-02	 1.063302e-02	 -1.047633e-11
1.063302e-02	 1.063302e-02	 -3.804040e-12
0	 0	 8.809441e-11
1.063302e-02	 -1.063302e-02	 -2.667119e-12
0	 0	 9.500580e-11
0	 0	 8.688731e-11
-1.063302e-02	 -1.063302e-02	 -3.779949e-12
0	 0	 8.417375e-11
-1.435441e-11	 -3.685898e-11	 -1.048690e-10
-1.577669e-11	 -1.366216e-11	 -9.337776e-11
-9.397233e-03	 9.397234e-03	 3.998259e-11
9.397233e-03	 -9.397234e-03	 4.718565e-11
0	 0	 6.329129e-11
-1.199855e-11	 -3.932945e-11	 -8.011684e-11
1.342815e-02	 -1.342816e-02	 -3.269117e-12
0	 0	 7.035700e-11
9.397234e-03	 9.397233e-03	 4.237128e-11
-9.397234e-03	 -9.397233e-03	 4.078795e-11
9.397233e-03	 -9.397234e-03	 -5.471772e-11
-9.397234e-03	 -9.397233e-03	 -4.909339e-11
-1.342815e-02	 1.342816e-02	 -9.895870e-12
-9.397233e-03	 9.397234e-03	 -5.888170e-11
0	 0	 6.418555e-11
-1.762454e-11	 -1.549596e-11	 -7.079150e-11
-1.342816e-02	 -1.342815e-02	 -3.822581e-12
0	 0	 6.165486e-11
1.342816e-02	 1.342815e-02	 -3.737236e-12
9.397234e-03	 9.397233e-03	 -4.947447e-11
1.619470e-02	 1.619470e-02	 -3.670622e-12
-1.619470e-02	 1.619470e-02	 -9.315545e-12
0	 0	 3.848266e-11
-9.646474e-12	 -4.178930e-11	 -5.535519e-11
0	 0	 4.569942e-11
0	 0	 4.147924e-11
-1.945460e-11	 -1.731618e-11	 -4.819988e-11
0	 0	 3.912889e-11
-1.619470e-02	 -1.619470e-02	 -3.864852e-12
1.619470e-02	 -1.619470e-02	 -3.870455e-12
1.319214e-02	 -1.319215e-02	 1.497404e-11
-1.319215e-02	 -1.319214e-02	 1.144657e-11
0	 0	 1.339383e-11
-1.319214e-02	 1.319215e-02	 8.701376e-12
-1.899573e-02	 1.899574e-02	 -8.731021e-12
-1.319214e-02	 1.319215e-02	 -2.631585e-11
1.319214e-02	 -1.319215e-02	 -2.378224e-11
0	 0	 2.076674e-11
1.899573e-02	 -1.899574e-02	 -4.478561e-12
-2.129598e-11	 -1.915534e-11	 -2.534609e-11
0	 0	 1.850708e-11
1.319215e-02	 1.319214e-02	 1.290544e-11
1.899573e-02	 1.899573e-02	 -3.602987e-12
1.319215e-02	 1.319214e-02	 -1.992594e-11
-1.319215e-02	 -1.319214e-02	 -1.982500e-11
0	 0	 1.634137e-11
-7.237480e-12	 -4.423182e-11	 -3.031796e-11
-1.899573e-02	 -1.899573e-02	 -3.909309e-12
0	 0	 7.835776e-03
2.430343e-02	 5.028944e-02	 -1.345825e-11
-3.574006e-11	 -6.545079e-11	 -7.835776e-03
-2.430343e-02	 -5.028944e-02	 4.205726e-14
0	 0	 7.835776e-03
0	 0	 -7.835776e-03
-2.430343e-02	 5.028943e-02	 -1.245224e-12
5.357745e-12	 -3.880039e-11	 7.835776e-03
2.430343e-02	 -5.028943e-02	 -5.208645e-12
0	 0	 -7.835776e-03
-3.452919e-11	 -6.644648e-11	 -4.816778e-03
-2.063686e-02	 -5.279841e-02	 -1.527679e-12
0	 0	 -4.816778e-03
0	 0	 -4.816778e-03
3.190024e-12	 -4.030849e-11	 4.816778e-03
2.063686e-02	 -5.279841e-02	 -4.623004e-12
2.063686e-02	 5.279841e-02	 -1.192540e-11
0	 0	 4.816778e-03
0	 0	 4.816778e-03
-2.063686e-02	 5.279841e-02	 -1.674605e-12
-1.674907e-02	 5.507218e-02	 -2.100296e-12
1.674907e-02	 5.507218e-02	 -1.039227e-11
0	 0	 1.800643e-03
-3.309954e-11	 -6.713864e-11	 -1.800643e-03
-1.674907e-02	 -5.507218e-02	 -3.097115e-12
0	 0	 1.800643e-03
0	 0	 -1.800643e-03
8.924398e-13	 -4.167111e-11	 1.800643e-03
1.674907e-02	 -5.507218e-02	 -4.037679e-12
0	 0	 -1.800643e-03
1.957815e-02	 4.771884e-02	 -6.509478e-03
-1.957815e-02	 4.771884e-02	 6.509478e-03
0	 0	 9.764911e-03
2.618841e-02	 6.417473e-02	 -1.256131e-11
-2.692527e-11	 -5.848075e-11	 -9.764911e-03
-1.957815e-02	 -4.771884e-02	 -6.509478e-03
0	 0	 9.764911e-03
0	 0	 -9.764911e-03
-2.618841e-02	 6.417473e-02	 4.150695e-14
6.419760e-12	 -4.811613e-11	 9.764911e-03
1.957815e-02	 -4.771884e-02	 6.509478e-03
2.618841e-02	 -6.417473e-02	 -5.804133e-12
1.957815e-02	 -4.771884e-02	 -6.509478e-03
0	 0	 -9.764911e-03
1.957815e-02	 4.771884e-02	 6.509478e-03
-2.618841e-02	 -6.417473e-02	 -8.551562e-13
-1.957815e-02	 -4.771884e-02	 6.509478e-03
-1.957815e-02	 4.771884e-02	 -6.509478e-03
-2.889036e-11	 -5.790670e-11	 -7.761037e-03
6.762596e-12	 -4.812602e-11	 7.761037e-03
2.648645e-02	 6.441640e-02	 -1.210206e-11
0	 0	 7.761037e-03
-2.648645e-02	 -6.441640e-02	 -1.331113e-12
0	 0	 7.761037e-03
0	 0	 -7.761037e-03
-2.648645e-02	 6.441640e-02	 -2.626568e-13
2.648645e-02	 -6.441640e-02	 -5.360744e-12
0	 0	 -7.761037e-03
-2.673981e-02	 -6.453966e-02	 -1.801763e-12
2.673981e-02	 -6.453966e-02	 -4.918836e-12
-1.979979e-02	 4.780974e-02	 3.948950e-03
1.979979e-02	 -4.780974e-02	 -3.948950e-03
0	 0	 5.776681e-03
1.979979e-02	 4.780974e-02	 3.948950e-03
0	 0	 5.776681e-03
-3.079621e-11	 -5.728009e-11	 -5.776681e-03
0	 0	 -5.776681e-03
-1.979979e-02	 4.780974e-02	 -3.948950e-03
7.081147e-12	 -4.808829e-11	 5.776681e-03
0	 0	 -5.776681e-03
1.979979e-02	 4.780974e-02	 -3.948950e-03
-1.979979e-02	 -4.780974e-02	 -3.948950e-03
2.673981e-02	 6.453966e-02	 -1.164472e-11
-2.673981e-02	 6.453966e-02	 -5.654517e-13
1.979979e-02	 -4.780974e-02	 3.948950e-03
-1.979979e-02	 -4.780974e-02	 3.948950e-03
-3.269726e-11	 -5.663051e-11	 -3.790729e-03
-2.699572e-02	 -6.466233e-02	 -2.271990e-12
2.699572e-02	 -6.466233e-02	 -4.473940e-12
0	 0	 -3.790729e-03
0	 0	 -3.790729e-03
7.394257e-12	 -4.803447e-11	 3.790729e-03
0	 0	 3.790729e-03
0	 0	 3.790729e-03
2.699572e-02	 6.466233e-02	 -1.118750e-11
-2.699572e-02	 6.466233e-02	 -8.681109e-13
1.993926e-02	 4.768239e-02	 -1.379516e-03
0	 0	 1.781466e-03
-1.993926e-02	 -4.768239e-02	 -1.379516e-03
0	 0	 1.781466e-03
-3.457983e-11	 -5.589098e-11	 -1.781466e-03
0	 0	 -1.781466e-03
0	 0	 -1.781466e-03
-1.993926e-02	 4.768239e-02	 1.379516e-03
1.993926e-02	 -4.768239e-02	 1.379515e-03
1.993926e-02	 -4.768239e-02	 -1.379516e-03
1.993926e-02	 4.768239e-02	 1.379515e-03
2.719364e-02	 6.464581e-02	 -1.072617e-11
-2.719364e-02	 -6.464581e-02	 -2.747326e-12
-1.993926e-02	 -4.768239e-02	 1.379516e-03
7.681297e-12	 -4.791966e-11	 1.781466e-03
-1.993926e-02	 4.768239e-02	 -1.379516e-03
2.719364e-02	 -6.464581e-02	 -4.026702e-12
-2.719364e-02	 6.464581e-02	 -1.174145e-12
1.732539e-02	 4.956033e-02	 -1.018394e-11
-1.732539e-02	 4.956034e-02	 2.996042e-13
0	 0	 7.140787e-03
-1.523283e-11	 -2.316036e-11	 -7.140787e-03
0	 0	 7.140787e-03
0	 0	 -7.140787e-03
4.154298e-13	 -3.600586e-11	 7.140787e-03
0	 0	 -7.140787e-03
-1.732539e-02	 -4.956033e-02	 -2.941328e-12
1.732539e-02	 -4.956034e-02	 -5.816469e-12
2.209022e-02	 4.877227e-02	 -1.019230e-11
0	 0	 4.302930e-03
0	 0	 4.302930e-03
-2.209022e-02	 4.877227e-02	 -2.802041e-13
2.209022e-02	 -4.877227e-02	 -4.780234e-12
0	 0	 -4.302930e-03
0	 0	 -4.302930e-03
-2.209022e-02	 -4.877227e-02	 -2.988209e-12
3.103680e-12	 -3.560495e-11	 4.302930e-03
-2.035565e-11	 -2.227216e-11	 -4.302930e-03
5.789692e-12	 -3.506152e-11	 1.465987e-03
0	 0	 1.465987e-03
-2.552396e-11	 -2.134835e-11	 -1.465987e-03
0	 0	 1.465987e-03
0	 0	 -1.465987e-03
0	 0	 -1.465987e-03
-2.684831e-02	 -4.764737e-02	 -3.032491e-12
2.684831e-02	 4.764737e-02	 -1.020083e-11
-2.684831e-02	 4.764737e-02	 -8.592507e-13
2.684831e-02	 -4.764737e-02	 -3.740787e-12
0	 0	 -1.282064e-10
7.712281e-03	 -6.373727e-10	 -8.907084e-11
1.089529e-02	 -8.533568e-10	 -7.500954e-12
7.712281e-03	 -6.184501e-10	 7.282657e-11
-1.299699e-11	 1.429447e-11	 1.107003e-10
-7.712281e-03	 6.332472e-10	 7.301102e-11
-1.089529e-02	 8.400395e-10	 -5.137101e-12
-7.712281e-03	 6.155545e-10	 -8.189071e-11
0	 0	 -1.181253e-10
0	 0	 -1.036474e-10
-1.546884e-11	 1.439914e-11	 8.673612e-11
0	 0	 -9.467436e-11
-1.509348e-02	 8.442214e-10	 -4.729467e-12
1.509348e-02	 -8.575955e-10	 -7.948165e-12
1.924339e-02	 -8.601645e-10	 -8.388380e-12
1.350336e-02	 -6.204919e-10	 4.049241e-11
0	 0	 -7.935343e-11
1.350336e-02	 -6.395049e-10	 -5.731446e-11
-1.350336e-02	 6.353497e-10	 4.241257e-11
-1.350336e-02	 6.175848e-10	 -5.070247e-11
0	 0	 -7.148412e-11
-1.793002e-11	 1.443937e-11	 6.303626e-11
-1.924339e-02	 8.467164e-10	 -4.326857e-12
-2.036308e-11	 1.446702e-11	 3.929402e-11
-2.335584e-02	 8.489946e-10	 -3.924059e-12
0	 0	 -5.501721e-11
2.335584e-02	 -8.625230e-10	 -8.829083e-12
0	 0	 -4.824964e-11
0	 0	 -3.038177e-11
1.926357e-02	 -6.384017e-10	 -2.543641e-11
1.926357e-02	 -6.194453e-10	 8.036305e-12
-2.282243e-11	 1.441909e-11	 1.525641e-11
-1.926357e-02	 6.341267e-10	 1.169851e-11
-2.752648e-02	 8.492870e-10	 -3.515104e-12
-1.926357e-02	 6.164300e-10	 -1.939594e-11
0	 0	 -2.472763e-11
2.752648e-02	 -8.629126e-10	 -9.279024e-12
-2.752648e-02	 8.199627e-10	 -1.083479e-12
0	 0	 -2.055680e-11
-1.926357e-02	 6.008702e-10	 -1.524912e-11
-1.926357e-02	 5.943659e-10	 1.260811e-11
5.048409e-12	 -9.444533e-12	 1.699260e-11
1.926357e-02	 -6.068120e-10	 1.141719e-11
2.752648e-02	 -8.170131e-10	 -3.422812e-12
1.926357e-02	 -5.905463e-10	 -1.922574e-11
0	 0	 -2.549639e-11
0	 0	 -4.348126e-11
-2.335584e-02	 8.196968e-10	 -9.619123e-13
0	 0	 -4.785933e-11
2.828672e-12	 -9.405905e-12	 3.995998e-11
2.335584e-02	 -8.167128e-10	 -3.868186e-12
6.304339e-13	 -9.369992e-12	 6.263800e-11
1.924339e-02	 -8.145033e-10	 -4.311497e-12
0	 0	 -6.611827e-11
-1.350336e-02	 6.020574e-10	 -4.563797e-11
1.350336e-02	 -6.079361e-10	 4.128912e-11
1.350336e-02	 -5.916794e-10	 -4.944829e-11
0	 0	 -6.994506e-11
-1.924339e-02	 8.174715e-10	 -8.424388e-13
-1.350336e-02	 5.955667e-10	 4.333540e-11
-1.509348e-02	 8.150374e-10	 -7.210872e-13
1.509348e-02	 -8.120823e-10	 -4.753270e-12
0	 0	 -8.871362e-11
-1.584147e-12	 -9.336960e-12	 8.527725e-11
0	 0	 -9.198987e-11
0	 0	 -1.115708e-10
-7.712281e-03	 6.000980e-10	 -7.591050e-11
-1.089529e-02	 8.109428e-10	 -6.008666e-13
-7.712281e-03	 5.936282e-10	 7.394949e-11
-3.818289e-12	 -9.302515e-12	 1.081755e-10
7.712281e-03	 -6.059469e-10	 7.104864e-11
1.089529e-02	 -8.080420e-10	 -5.197289e-12
7.712281e-03	 -5.897612e-10	 -7.955425e-11
0	 0	 -1.142882e-10
2.684831e-02	 -4.764737e-02	 -8.303851e-12
-2.684831e-02	 4.764737e-02	 -4.137041e-12
-2.684831e-02	 -4.764737e-02	 -1.239738e-12
2.684831e-02	 4.764737e-02	 -3.371064e-12
0	 0	 -1.465987e-03
0	 0	 -1.465987e-03
0	 0	 1.465987e-03
3.993409e-12	 1.365689e-11	 -1.465987e-03
0	 0	 1.465987e-03
-2.082428e-11	 3.567461e-11	 1.465987e-03
1.903315e-12	 1.419679e-11	 -4.302930e-03
-1.985537e-11	 3.605763e-11	 4.302930e-03
2.209022e-02	 4.877227e-02	 -3.925993e-12
0	 0	 -4.302930e-03
0	 0	 -4.302930e-03
2.209022e-02	 -4.877227e-02	 -7.001132e-12
-2.209022e-02	 4.877227e-02	 -5.290461e-12
0	 0	 4.302930e-03
0	 0	 4.302930e-03
-2.209022e-02	 -4.877227e-02	 -1.367969e-12
-1.732539e-02	 4.956034e-02	 -6.442251e-12
1.732539e-02	 4.956033e-02	 -4.473867e-12
0	 0	 -7.140787e-03
-1.883909e-11	 3.616482e-11	 7.140787e-03
0	 0	 -7.140787e-03
0	 0	 7.140787e-03
-1.938024e-13	 1.457887e-11	 -7.140787e-03
0	 0	 7.140787e-03
1.732539e-02	 -4.956034e-02	 -5.700799e-12
-1.732539e-02	 -4.956033e-02	 -1.497377e-12
2.719364e-02	 -6.464581e-02	 -7.893913e-12
-2.719364e-02	 6.464581e-02	 -4.150793e-12
1.993926e-02	 -4.768239e-02	 -1.379516e-03
-1.638558e-11	 3.128397e-11	 1.781466e-03
-1.993926e-02	 -4.768239e-02	 1.379516e-03
-2.719364e-02	 -6.464581e-02	 -1.001012e-12
2.719364e-02	 6.464581e-02	 -3.700206e-12
1.993926e-02	 4.768239e-02	 1.379515e-03
1.993926e-02	 -4.768239e-02	 1.379515e-03
-1.993926e-02	 4.768239e-02	 1.379515e-03
-1.993926e-02	 4.768239e-02	 -1.379516e-03
0	 0	 -1.781466e-03
0	 0	 -1.781466e-03
3.427659e-12	 2.127198e-11	 -1.781466e-03
0	 0	 1.781466e-03
1.993926e-02	 4.768239e-02	 -1.379516e-03
0	 0	 1.781466e-03
-1.993926e-02	 -4.768239e-02	 -1.379516e-03
2.699572e-02	 -6.466233e-02	 -7.354718e-12
-2.699572e-02	 -6.466233e-02	 -1.125063e-12
0	 0	 3.790729e-03
0	 0	 3.790729e-03
-1.747474e-11	 3.085363e-11	 3.790729e-03
0	 0	 -3.790729e-03
0	 0	 -3.790729e-03
-2.699572e-02	 6.466233e-02	 -4.578837e-12
2.699572e-02	 6.466233e-02	 -3.938529e-12
3.565633e-12	 2.123244e-11	 -3.790729e-03
1.979979e-02	 4.780974e-02	 3.948950e-03
2.673981e-02	 -6.453966e-02	 -6.821809e-12
-1.979979e-02	 4.780974e-02	 3.948950e-03
-2.673981e-02	 -6.453966e-02	 -1.248253e-12
1.979979e-02	 4.780974e-02	 -3.948950e-03
-1.979979e-02	 -4.780974e-02	 -3.948950e-03
0	 0	 -5.776681e-03
1.979979e-02	 -4.780974e-02	 -3.948950e-03
-1.852479e-11	 3.037593e-11	 5.776681e-03
0	 0	 -5.776681e-03
3.687204e-12	 2.115236e-11	 -5.776681e-03
0	 0	 5.776681e-03
-1.979979e-02	 -4.780974e-02	 3.948950e-03
0	 0	 5.776681e-03
1.979979e-02	 -4.780974e-02	 3.948950e-03
-1.979979e-02	 4.780974e-02	 -3.948950e-03
-2.673981e-02	 6.453966e-02	 -5.002908e-12
2.673981e-02	 6.453966e-02	 -4.175685e-12
0	 0	 -7.761037e-03
2.648645e-02	 -6.441640e-02	 -6.289974e-12
-2.648645e-02	 6.441640e-02	 -5.424827e-12
0	 0	 -7.761037e-03
0	 0	 7.761037e-03
2.648645e-02	 6.441640e-02	 -4.413140e-12
0	 0	 7.761037e-03
-2.648645e-02	 -6.441640e-02	 -1.370373e-12
-1.958186e-11	 2.987601e-11	 7.761037e-03
3.798156e-12	 2.106165e-11	 -7.761037e-03
1.957815e-02	 -4.771884e-02	 -6.509478e-03
-1.957815e-02	 -4.771884e-02	 6.509478e-03
2.618841e-02	 6.417473e-02	 -4.651439e-12
1.957815e-02	 4.771884e-02	 6.509478e-03
0	 0	 -9.764911e-03
2.618841e-02	 -6.417473e-02	 -5.754353e-12
-2.063414e-11	 2.932278e-11	 9.764911e-03
-1.957815e-02	 4.771884e-02	 6.509478e-03
-2.618841e-02	 6.417473e-02	 -5.849003e-12
-1.957815e-02	 4.771884e-02	 -6.509478e-03
0	 0	 -9.764911e-03
0	 0	 9.764911e-03
-2.618841e-02	 -6.417473e-02	 -1.494038e-12
3.901787e-12	 2.093653e-11	 -9.764911e-03
1.957815e-02	 4.771884e-02	 -6.509478e-03
0	 0	 9.764911e-03
1.957815e-02	 -4.771884e-02	 6.509478e-03
-1.957815e-02	 -4.771884e-02	 -6.509478e-03
0	 0	 -1.800643e-03
-4.675639e-12	 1.010729e-11	 1.800643e-03