# vtk DataFile Version 3.0
Unstructured Grid Example
ASCII
DATASET UNSTRUCTURED_GRID
POINTS 832 float
-1	 0	 0
-1	 0	 3.750000e-01
-1	 0	 7.500000e-01
-1	 0	 1.125000e+00
-1	 0	 1.500000e+00
-1	 0	 1.875000e+00
-1	 0	 2.250000e+00
-1	 0	 2.625000e+00
-1	 0	 3
-9.875000e-01	 0	 0
-9.875000e-01	 0	 1.500000e+00
-9.875000e-01	 0	 3
-9.875000e-01	 0	 2.250000e+00
-9.875000e-01	 0	 7.500000e-01
-9.833054e-01	 -1.819631e-01	 7.500000e-01
-9.833054e-01	 -1.819631e-01	 0
-9.833054e-01	 -1.819631e-01	 1.500000e+00
-9.833054e-01	 -1.819631e-01	 3.000000e+00
-9.833054e-01	 1.819631e-01	 2.250000e+00
-9.833054e-01	 1.819631e-01	 0
-9.833054e-01	 1.819631e-01	 1.500000e+00
-9.833054e-01	 1.819631e-01	 3.000000e+00
-9.833054e-01	 1.819631e-01	 7.500000e-01
-9.833054e-01	 -1.819631e-01	 2.250000e+00
-9.750000e-01	 0	 7.500000e-01
-9.750000e-01	 0	 1.125000e+00
-9.750000e-01	 0	 0
-9.750000e-01	 0	 3.750000e-01
-9.750000e-01	 0	 1.875000e+00
-9.750000e-01	 0	 2.625000e+00
-9.750000e-01	 0	 3
-9.750000e-01	 0	 1.500000e+00
-9.750000e-01	 0	 2.250000e+00
-9.625000e-01	 0	 1.500000e+00
-9.625000e-01	 0	 2.250000e+00
-9.625000e-01	 0	 0
-9.625000e-01	 0	 7.500000e-01
-9.625000e-01	 0	 3
-9.587227e-01	 -1.774140e-01	 0
-9.587227e-01	 -1.774140e-01	 3.000000e+00
-9.587227e-01	 -1.774140e-01	 1.500000e+00
-9.587227e-01	 1.774140e-01	 0
-9.587227e-01	 1.774140e-01	 3.000000e+00
-9.587227e-01	 1.774140e-01	 1.500000e+00
-9.587227e-01	 1.774140e-01	 7.500000e-01
-9.587227e-01	 -1.774140e-01	 7.500000e-01
-9.587227e-01	 -1.774140e-01	 2.250000e+00
-9.587227e-01	 1.774140e-01	 2.250000e+00
-9.500000e-01	 0	 0
-9.500000e-01	 0	 3.750000e-01
-9.500000e-01	 0	 1.125000e+00
-9.500000e-01	 0	 1.500000e+00
-9.500000e-01	 0	 1.875000e+00
-9.500000e-01	 0	 2.250000e+00
-9.500000e-01	 0	 2.625000e+00
-9.500000e-01	 0	 3
-9.500000e-01	 0	 7.500000e-01
-9.341401e-01	 -1.728649e-01	 1.500000e+00
-9.341401e-01	 -1.728649e-01	 0
-9.341401e-01	 -1.728649e-01	 3.000000e+00
-9.341401e-01	 1.728649e-01	 2.250000e+00
-9.341401e-01	 1.728649e-01	 0
-9.341401e-01	 1.728649e-01	 1.500000e+00
-9.341401e-01	 1.728649e-01	 3.000000e+00
-9.341401e-01	 -1.728649e-01	 7.500000e-01
-9.341401e-01	 -1.728649e-01	 2.250000e+00
-9.341401e-01	 1.728649e-01	 7.500000e-01
-9.297883e-01	 -3.680947e-01	 1.125000e+00
-9.297883e-01	 -3.680947e-01	 0
-9.297883e-01	 -3.680947e-01	 7.500000e-01
-9.297883e-01	 -3.680947e-01	 1.500000e+00
-9.297883e-01	 -3.680947e-01	 1.875000e+00
-9.297883e-01	 -3.680947e-01	 2.250000e+00
-9.297883e-01	 -3.680947e-01	 2.625000e+00
-9.297883e-01	 -3.680947e-01	 3.000000e+00
-9.297883e-01	 -3.680947e-01	 3.750000e-01
-9.297883e-01	 3.680947e-01	 3.750000e-01
-9.297883e-01	 3.680947e-01	 2.250000e+00
-9.297883e-01	 3.680947e-01	 2.625000e+00
-9.297883e-01	 3.680947e-01	 0
-9.297883e-01	 3.680947e-01	 7.500000e-01
-9.297883e-01	 3.680947e-01	 1.500000e+00
-9.297883e-01	 3.680947e-01	 1.875000e+00
-9.297883e-01	 3.680947e-01	 3.000000e+00
-9.297883e-01	 3.680947e-01	 1.125000e+00
-9.181659e-01	 3.634935e-01	 7.500000e-01
-9.181659e-01	 -3.634935e-01	 0
-9.181659e-01	 -3.634935e-01	 7.500000e-01
-9.181659e-01	 -3.634935e-01	 2.250000e+00
-9.181659e-01	 -3.634935e-01	 3
-9.181659e-01	 3.634935e-01	 0
-9.181659e-01	 3.634935e-01	 2.250000e+00
-9.181659e-01	 3.634935e-01	 3
-9.181659e-01	 -3.634935e-01	 1.500000e+00
-9.181659e-01	 3.634935e-01	 1.500000e+00
-9.065436e-01	 -3.588923e-01	 1.125000e+00
-9.065436e-01	 -3.588923e-01	 2.625000e+00
-9.065436e-01	 -3.588923e-01	 0
-9.065436e-01	 -3.588923e-01	 3.750000e-01
-9.065436e-01	 -3.588923e-01	 1.500000e+00
-9.065436e-01	 -3.588923e-01	 3
-9.065436e-01	 3.588923e-01	 2.625000e+00
-9.065436e-01	 3.588923e-01	 1.125000e+00
-9.065436e-01	 3.588923e-01	 0
-9.065436e-01	 3.588923e-01	 3.750000e-01
-9.065436e-01	 3.588923e-01	 3
-9.065436e-01	 -3.588923e-01	 7.500000e-01
-9.065436e-01	 -3.588923e-01	 1.875000e+00
-9.065436e-01	 3.588923e-01	 1.875000e+00
-9.065436e-01	 3.588923e-01	 1.500000e+00
-9.065436e-01	 -3.588923e-01	 2.250000e+00
-9.065436e-01	 3.588923e-01	 7.500000e-01
-9.065436e-01	 3.588923e-01	 2.250000e+00
-8.949212e-01	 3.542912e-01	 1.500000e+00
-8.949212e-01	 -3.542912e-01	 1.500000e+00
-8.949212e-01	 -3.542912e-01	 0
-8.949212e-01	 -3.542912e-01	 3.000000e+00
-8.949212e-01	 3.542912e-01	 0
-8.949212e-01	 3.542912e-01	 3.000000e+00
-8.949212e-01	 -3.542912e-01	 2.250000e+00
-8.949212e-01	 -3.542912e-01	 7.500000e-01
-8.949212e-01	 3.542912e-01	 2.250000e+00
-8.949212e-01	 3.542912e-01	 7.500000e-01
-8.832989e-01	 -3.496900e-01	 1.125000e+00
-8.832989e-01	 -3.496900e-01	 1.875000e+00
-8.832989e-01	 -3.496900e-01	 2.625000e+00
-8.832989e-01	 -3.496900e-01	 2.250000e+00
-8.832989e-01	 3.496900e-01	 1.125000e+00
-8.832989e-01	 -3.496900e-01	 0
-8.832989e-01	 -3.496900e-01	 3.000000e+00
-8.832989e-01	 -3.496900e-01	 3.750000e-01
-8.832989e-01	 -3.496900e-01	 7.500000e-01
-8.832989e-01	 3.496900e-01	 3.750000e-01
-8.832989e-01	 3.496900e-01	 7.500000e-01
-8.832989e-01	 3.496900e-01	 2.250000e+00
-8.832989e-01	 3.496900e-01	 2.625000e+00
-8.832989e-01	 3.496900e-01	 0
-8.832989e-01	 3.496900e-01	 1.875000e+00
-8.832989e-01	 3.496900e-01	 3.000000e+00
-8.832989e-01	 -3.496900e-01	 1.500000e+00
-8.832989e-01	 3.496900e-01	 1.500000e+00
-8.369955e-01	 -5.472098e-01	 0
-8.369955e-01	 -5.472098e-01	 7.500000e-01
-8.369955e-01	 -5.472098e-01	 1.500000e+00
-8.369955e-01	 -5.472098e-01	 2.250000e+00
-8.369955e-01	 -5.472098e-01	 3
-8.369955e-01	 5.472098e-01	 0
-8.369955e-01	 5.472098e-01	 7.500000e-01
-8.369955e-01	 5.472098e-01	 1.500000e+00
-8.369955e-01	 5.472098e-01	 2.250000e+00
-8.369955e-01	 5.472098e-01	 3
-8.160706e-01	 -5.335295e-01	 7.500000e-01
-8.160706e-01	 5.335295e-01	 7.500000e-01
-8.160706e-01	 -5.335295e-01	 1.500000e+00
-8.160706e-01	 -5.335295e-01	 2.250000e+00
-8.160706e-01	 5.335295e-01	 1.500000e+00
-8.160706e-01	 5.335295e-01	 2.250000e+00
-8.160706e-01	 -5.335295e-01	 0
-8.160706e-01	 -5.335295e-01	 3.000000e+00
-8.160706e-01	 5.335295e-01	 0
-8.160706e-01	 5.335295e-01	 3.000000e+00
-7.951457e-01	 -5.198493e-01	 7.500000e-01
-7.951457e-01	 5.198493e-01	 7.500000e-01
-7.951457e-01	 -5.198493e-01	 0
-7.951457e-01	 -5.198493e-01	 1.500000e+00
-7.951457e-01	 -5.198493e-01	 2.250000e+00
-7.951457e-01	 -5.198493e-01	 3
-7.951457e-01	 5.198493e-01	 0
-7.951457e-01	 5.198493e-01	 1.500000e+00
-7.951457e-01	 5.198493e-01	 2.250000e+00
-7.951457e-01	 5.198493e-01	 3
-7.071068e-01	 -7.071068e-01	 0
-7.071068e-01	 -7.071068e-01	 3.750000e-01
-7.071068e-01	 -7.071068e-01	 7.500000e-01
-7.071068e-01	 -7.071068e-01	 1.125000e+00
-7.071068e-01	 -7.071068e-01	 1.500000e+00
-7.071068e-01	 -7.071068e-01	 1.875000e+00
-7.071068e-01	 -7.071068e-01	 2.250000e+00
-7.071068e-01	 -7.071068e-01	 2.625000e+00
-7.071068e-01	 -7.071068e-01	 3.000000e+00
-7.071068e-01	 7.071068e-01	 0
-7.071068e-01	 7.071068e-01	 3.750000e-01
-7.071068e-01	 7.071068e-01	 7.500000e-01
-7.071068e-01	 7.071068e-01	 1.125000e+00
-7.071068e-01	 7.071068e-01	 1.500000e+00
-7.071068e-01	 7.071068e-01	 1.875000e+00
-7.071068e-01	 7.071068e-01	 2.250000e+00
-7.071068e-01	 7.071068e-01	 2.625000e+00
-7.071068e-01	 7.071068e-01	 3.000000e+00
-6.982679e-01	 -6.982679e-01	 7.500000e-01
-6.982679e-01	 6.982679e-01	 7.500000e-01
-6.982679e-01	 -6.982679e-01	 0
-6.982679e-01	 -6.982679e-01	 2.250000e+00
-6.982679e-01	 -6.982679e-01	 3.000000e+00
-6.982679e-01	 6.982679e-01	 0
-6.982679e-01	 6.982679e-01	 2.250000e+00
-6.982679e-01	 6.982679e-01	 3.000000e+00
-6.982679e-01	 -6.982679e-01	 1.500000e+00
-6.982679e-01	 6.982679e-01	 1.500000e+00
-6.894291e-01	 -6.894291e-01	 3.750000e-01
-6.894291e-01	 -6.894291e-01	 2.625000e+00
-6.894291e-01	 -6.894291e-01	 0
-6.894291e-01	 -6.894291e-01	 1.500000e+00
-6.894291e-01	 -6.894291e-01	 2.250000e+00
-6.894291e-01	 -6.894291e-01	 3.000000e+00
-6.894291e-01	 6.894291e-01	 3.750000e-01
-6.894291e-01	 6.894291e-01	 2.625000e+00
-6.894291e-01	 -6.894291e-01	 1.875000e+00
-6.894291e-01	 6.894291e-01	 1.875000e+00
-6.894291e-01	 -6.894291e-01	 7.500000e-01
-6.894291e-01	 -6.894291e-01	 1.125000e+00
-6.894291e-01	 6.894291e-01	 0
-6.894291e-01	 6.894291e-01	 1.500000e+00
-6.894291e-01	 6.894291e-01	 2.250000e+00
-6.894291e-01	 6.894291e-01	 3.000000e+00
-6.894291e-01	 6.894291e-01	 7.500000e-01
-6.894291e-01	 6.894291e-01	 1.125000e+00
-6.805903e-01	 6.805903e-01	 7.500000e-01
-6.805903e-01	 -6.805903e-01	 7.500000e-01
-6.805903e-01	 -6.805903e-01	 0
-6.805903e-01	 -6.805903e-01	 1.500000e+00
-6.805903e-01	 -6.805903e-01	 3.000000e+00
-6.805903e-01	 6.805903e-01	 0
-6.805903e-01	 6.805903e-01	 1.500000e+00
-6.805903e-01	 6.805903e-01	 3.000000e+00
-6.805903e-01	 6.805903e-01	 2.250000e+00
-6.805903e-01	 -6.805903e-01	 2.250000e+00
-6.717514e-01	 -6.717514e-01	 2.625000e+00
-6.717514e-01	 6.717514e-01	 2.625000e+00
-6.717514e-01	 -6.717514e-01	 0
-6.717514e-01	 -6.717514e-01	 3.750000e-01
-6.717514e-01	 -6.717514e-01	 7.500000e-01
-6.717514e-01	 -6.717514e-01	 1.125000e+00
-6.717514e-01	 -6.717514e-01	 1.875000e+00
-6.717514e-01	 -6.717514e-01	 3.000000e+00
-6.717514e-01	 -6.717514e-01	 2.250000e+00
-6.717514e-01	 6.717514e-01	 1.500000e+00
-6.717514e-01	 6.717514e-01	 0
-6.717514e-01	 6.717514e-01	 3.750000e-01
-6.717514e-01	 6.717514e-01	 7.500000e-01
-6.717514e-01	 6.717514e-01	 1.125000e+00
-6.717514e-01	 6.717514e-01	 1.875000e+00
-6.717514e-01	 6.717514e-01	 3.000000e+00
-6.717514e-01	 -6.717514e-01	 1.500000e+00
-6.717514e-01	 6.717514e-01	 2.250000e+00
-5.472098e-01	 -8.369955e-01	 0
-5.472098e-01	 -8.369955e-01	 7.500000e-01
-5.472098e-01	 -8.369955e-01	 1.500000e+00
-5.472098e-01	 -8.369955e-01	 2.250000e+00
-5.472098e-01	 -8.369955e-01	 3
-5.472098e-01	 8.369955e-01	 0
-5.472098e-01	 8.369955e-01	 7.500000e-01
-5.472098e-01	 8.369955e-01	 1.500000e+00
-5.472098e-01	 8.369955e-01	 2.250000e+00
-5.472098e-01	 8.369955e-01	 3
-5.335295e-01	 -8.160706e-01	 1.500000e+00
-5.335295e-01	 -8.160706e-01	 2.250000e+00
-5.335295e-01	 8.160706e-01	 0
-5.335295e-01	 8.160706e-01	 3.000000e+00
[...]
POINT_DATA 832
VECTORS displacement float
0	 0	 -4.325834e-03
-2.549218e-02	 7.698601e-04	 -4.003112e-03
-4.664217e-02	 1.380330e-03	 -3.058827e-03
-6.154356e-02	 1.858607e-03	 -1.658143e-03
-6.596198e-02	 1.952082e-03	 1.501757e-12
-6.154356e-02	 1.858607e-03	 1.658143e-03
-4.664217e-02	 1.380330e-03	 3.058827e-03
-2.549218e-02	 7.698601e-04	 4.003112e-03
0	 0	 4.325834e-03
0	 0	 -3.470227e-03
-6.619247e-02	 4.569561e-03	 5.903437e-13
0	 0	 3.470227e-03
-4.680514e-02	 3.231168e-03	 2.453821e-03
-4.680514e-02	 3.231168e-03	 -2.453821e-03
-1.082302e-02	 2.528735e-03	 -6.878384e-04
0	 0	 -9.727504e-04
-1.530606e-02	 3.576172e-03	 2.580016e-12
0	 0	 9.727504e-04
-4.903106e-02	 7.121179e-03	 3.372153e-03
0	 0	 -4.768944e-03
-6.934039e-02	 1.007087e-02	 6.644893e-13
0	 0	 4.768944e-03
-4.903106e-02	 7.121179e-03	 -3.372153e-03
-1.082302e-02	 2.528735e-03	 6.878384e-04
-4.686451e-02	 5.048544e-03	 -1.857816e-03
-6.175140e-02	 6.562357e-03	 -9.961460e-04
0	 0	 -2.627349e-03
-2.557827e-02	 2.718217e-03	 -2.404909e-03
-6.175140e-02	 6.562357e-03	 9.961459e-04
-2.557827e-02	 2.718217e-03	 2.404909e-03
0	 0	 2.627349e-03
-6.627643e-02	 7.139719e-03	 -3.223029e-13
-4.686451e-02	 5.048544e-03	 1.857816e-03
-6.633173e-02	 9.703930e-03	 -1.235565e-12
-4.690361e-02	 6.861715e-03	 1.259951e-03
0	 0	 -1.781840e-03
-4.690361e-02	 6.861715e-03	 -1.259951e-03
0	 0	 1.781840e-03
0	 0	 -6.025812e-04
0	 0	 6.025812e-04
-1.681954e-02	 1.157451e-02	 9.241504e-13
0	 0	 -2.965183e-03
0	 0	 2.965183e-03
-7.020529e-02	 6.163621e-03	 -1.270050e-12
-4.964263e-02	 4.358338e-03	 -2.096701e-03
-1.189321e-02	 8.184416e-03	 -4.260893e-04
-1.189321e-02	 8.184416e-03	 4.260893e-04
-4.964263e-02	 4.358338e-03	 2.096701e-03
0	 0	 -9.241349e-04
-2.551639e-02	 4.656031e-03	 -8.009530e-04
-6.160201e-02	 1.124065e-02	 -3.317656e-04
-6.620312e-02	 1.229889e-02	 -2.154067e-12
-6.160201e-02	 1.124065e-02	 3.317656e-04
-4.681268e-02	 8.696631e-03	 6.534621e-04
-2.551639e-02	 4.656031e-03	 8.009530e-04
0	 0	 9.241349e-04
-4.681268e-02	 8.696631e-03	 -6.534621e-04
-1.825022e-02	 1.966257e-02	 -7.371485e-13
0	 0	 -2.347983e-04
0	 0	 2.347983e-04
-4.985871e-02	 1.491746e-03	 8.256174e-04
0	 0	 -1.167599e-03
-7.051086e-02	 2.109648e-03	 -3.218037e-12
0	 0	 1.167599e-03
-1.290485e-02	 1.390354e-02	 -1.660274e-04
-1.290485e-02	 1.390354e-02	 1.660274e-04
-4.985871e-02	 1.491746e-03	 -8.256174e-04
4.383662e-02	 2.084506e-02	 1.354806e-03
0	 0	 3.534770e-03
3.320903e-02	 1.568453e-02	 2.499460e-03
4.696466e-02	 2.218128e-02	 3.183035e-12
4.383662e-02	 2.084506e-02	 -1.354806e-03
3.320903e-02	 1.568453e-02	 -2.499460e-03
1.815772e-02	 8.634308e-03	 -3.270791e-03
0	 0	 -3.534770e-03
1.815772e-02	 8.634308e-03	 3.270791e-03
-3.368337e-03	 -5.868250e-04	 -4.204869e-04
-6.130903e-03	 -9.890300e-04	 3.441291e-04
-3.368337e-03	 -5.868250e-04	 4.204869e-04
0	 0	 -4.866720e-04
-6.130903e-03	 -9.890300e-04	 -3.441291e-04
-8.670406e-03	 -1.398700e-03	 7.880285e-13
-8.131885e-03	 -1.416721e-03	 1.741714e-04
0	 0	 4.866720e-04
-8.131885e-03	 -1.416721e-03	 -1.741714e-04
-7.592599e-03	 -4.687874e-03	 -2.695309e-04
0	 0	 2.860352e-03
3.228340e-02	 1.838375e-02	 2.022574e-03
3.228340e-02	 1.838375e-02	 -2.022574e-03
0	 0	 -2.860352e-03
0	 0	 -3.811742e-04
-7.592599e-03	 -4.687874e-03	 2.695309e-04
0	 0	 3.811742e-04
4.565563e-02	 2.599855e-02	 2.571915e-12
-1.073756e-02	 -6.629655e-03	 -4.132900e-13
4.134945e-02	 2.759667e-02	 8.335332e-04
1.712750e-02	 1.143091e-02	 -2.012327e-03
0	 0	 2.195852e-03
1.712750e-02	 1.143091e-02	 2.012327e-03
4.426598e-02	 2.971028e-02	 1.964096e-12
0	 0	 -2.195852e-03
-4.901193e-03	 -4.470862e-03	 2.444448e-04
-1.183253e-02	 -1.079361e-02	 -1.012524e-04
0	 0	 -2.757705e-04
-4.901193e-03	 -4.470862e-03	 -2.444448e-04
0	 0	 2.757705e-04
3.130078e-02	 2.100834e-02	 1.552702e-03
4.134945e-02	 2.759667e-02	 -8.335332e-04
-1.183253e-02	 -1.079361e-02	 1.012524e-04
-1.276462e-02	 -1.176875e-02	 -1.613575e-12
3.130078e-02	 2.100834e-02	 -1.552702e-03
-9.025949e-03	 -8.321761e-03	 -1.949992e-04
-9.025949e-03	 -8.321761e-03	 1.949992e-04
-1.479210e-02	 -1.688845e-02	 -2.815805e-12
4.286787e-02	 3.341114e-02	 1.354120e-12
0	 0	 1.530676e-03
0	 0	 -1.530676e-03
0	 0	 -1.692613e-04
0	 0	 1.692613e-04
3.031216e-02	 2.362524e-02	 -1.082351e-03
3.031216e-02	 2.362524e-02	 1.082351e-03
-1.045960e-02	 -1.194193e-02	 1.196858e-04
-1.045960e-02	 -1.194193e-02	 -1.196858e-04
3.863317e-02	 3.421577e-02	 3.113277e-04
3.863317e-02	 3.421577e-02	 -3.113277e-04
1.600238e-02	 1.417264e-02	 -7.516115e-04
2.921852e-02	 2.622957e-02	 -6.051900e-04
-1.551054e-02	 -2.010847e-02	 -2.724683e-05
0	 0	 8.558679e-04
0	 0	 -8.558679e-04
1.600238e-02	 1.417264e-02	 7.516115e-04
2.921852e-02	 2.622957e-02	 6.051900e-04
-6.424677e-03	 -8.329200e-03	 -6.577966e-05
-1.190536e-02	 -1.560380e-02	 -4.391315e-05
-1.190536e-02	 -1.560380e-02	 4.391315e-05
-6.424677e-03	 -8.329200e-03	 6.577965e-05
0	 0	 -6.210258e-05
-1.551054e-02	 -2.010847e-02	 2.724682e-05
0	 0	 6.210258e-05
4.132123e-02	 3.709421e-02	 7.384562e-13
-1.683672e-02	 -2.206710e-02	 -4.025362e-12
0	 0	 5.471072e-03
4.619680e-02	 2.887466e-02	 3.868632e-03
6.533214e-02	 4.083494e-02	 3.556977e-12
4.619680e-02	 2.887466e-02	 -3.868632e-03
0	 0	 -5.471072e-03
0	 0	 4.229698e-03
3.349831e-02	 -2.540881e-02	 2.990848e-03
4.737377e-02	 -3.593349e-02	 6.267298e-13
3.349831e-02	 -2.540881e-02	 -2.990848e-03
0	 0	 -4.229698e-03
4.701527e-02	 2.777182e-02	 2.467775e-03
3.178561e-02	 -2.813812e-02	 1.912934e-03
6.648963e-02	 3.927528e-02	 2.937249e-12
4.701527e-02	 2.777182e-02	 -2.467775e-03
4.495164e-02	 -3.979331e-02	 -1.966431e-12
3.178561e-02	 -2.813812e-02	 -1.912934e-03
0	 0	 3.489961e-03
0	 0	 -3.489961e-03
0	 0	 2.705297e-03
0	 0	 -2.705297e-03
4.747908e-02	 2.641825e-02	 1.071045e-03
2.977480e-02	 -3.070433e-02	 8.379016e-04
0	 0	 1.514686e-03
6.714555e-02	 3.736104e-02	 2.320664e-12
4.747908e-02	 2.641825e-02	 -1.071045e-03
0	 0	 -1.514686e-03
0	 0	 1.184972e-03
4.210792e-02	 -4.342247e-02	 -4.572588e-12
2.977480e-02	 -3.070433e-02	 -8.379016e-04
0	 0	 -1.184972e-03
0	 0	 1.478538e-03
7.150529e-03	 4.505538e-03	 1.356270e-03
1.296774e-02	 8.300950e-03	 1.045484e-03
1.726290e-02	 1.087733e-02	 5.617853e-04
1.833916e-02	 1.173932e-02	 3.009386e-12
1.726290e-02	 1.087733e-02	 -5.617853e-04
1.296774e-02	 8.300950e-03	 -1.045484e-03
7.150529e-03	 4.505538e-03	 -1.356270e-03
0	 0	 -1.478538e-03
0	 0	 4.426216e-03
1.788882e-02	 -1.700528e-02	 4.060187e-03
3.261489e-02	 -3.105599e-02	 3.129807e-03
4.318743e-02	 -4.105439e-02	 1.681785e-03
4.612442e-02	 -4.391980e-02	 1.799335e-13
4.318743e-02	 -4.105439e-02	 -1.681785e-03
3.261489e-02	 -3.105599e-02	 -3.129807e-03
1.788882e-02	 -1.700529e-02	 -4.060187e-03
0	 0	 -4.426216e-03
1.573678e-02	 5.600692e-03	 8.476402e-04
3.363132e-02	 -3.024545e-02	 2.537532e-03
0	 0	 1.198744e-03
1.573678e-02	 5.600692e-03	 -8.476402e-04
0	 0	 -1.198744e-03
0	 0	 3.588613e-03
3.363132e-02	 -3.024545e-02	 -2.537532e-03
0	 0	 -3.588613e-03
2.225516e-02	 7.920575e-03	 3.211289e-12
4.756187e-02	 -4.277353e-02	 -1.081579e-12
1.002917e-02	 1.662971e-03	 8.422433e-04
1.002917e-02	 1.662971e-03	 -8.422433e-04
0	 0	 9.224785e-04
2.607475e-02	 4.140027e-03	 3.411334e-12
1.843763e-02	 2.927441e-03	 -6.522908e-04
0	 0	 -9.224785e-04
1.889838e-02	 -1.610372e-02	 2.521376e-03
1.889838e-02	 -1.610372e-02	 -2.521376e-03
2.421256e-02	 4.014767e-03	 -3.488686e-04
4.562472e-02	 -3.887783e-02	 -1.044388e-03
1.843763e-02	 2.927441e-03	 6.522908e-04
2.421256e-02	 4.014767e-03	 3.488686e-04
0	 0	 2.761571e-03
4.888969e-02	 -4.156258e-02	 -2.339157e-12
3.457023e-02	 -2.938919e-02	 -1.952726e-03
0	 0	 -2.761571e-03
3.457023e-02	 -2.938919e-02	 1.952726e-03
4.562472e-02	 -3.887783e-02	 1.044388e-03
3.550010e-02	 -2.852924e-02	 1.367109e-03
2.112835e-02	 2.600813e-04	 4.566706e-04
0	 0	 6.458298e-04
2.988000e-02	 3.678105e-04	 3.611153e-12
0	 0	 -6.458298e-04
0	 0	 1.933384e-03
5.020472e-02	 -4.034644e-02	 -3.598459e-12
0	 0	 -1.933384e-03
3.550010e-02	 -2.852924e-02	 -1.367109e-03
2.112835e-02	 2.600812e-04	 -4.566706e-04
1.286066e-02	 -1.189177e-03	 -3.268387e-04
1.981674e-02	 -1.512352e-02	 -9.784384e-04
0	 0	 3.655173e-04
1.286066e-02	 -1.189177e-03	 3.268387e-04
2.381911e-02	 -2.460821e-03	 2.584597e-04
3.104838e-02	 -2.870927e-03	 1.353810e-04
3.104838e-02	 -2.870927e-03	 -1.353810e-04
0	 0	 -3.655173e-04
2.381911e-02	 -2.460821e-03	 -2.584597e-04
5.141917e-02	 -3.900438e-02	 -4.869985e-12
0	 0	 1.094228e-03
1.981674e-02	 -1.512352e-02	 9.784384e-04
3.635884e-02	 -2.758026e-02	 7.737363e-04
4.784184e-02	 -3.651140e-02	 4.052824e-04
4.784184e-02	 -3.651140e-02	 -4.052824e-04
0	 0	 -1.094228e-03
3.368531e-02	 -3.480126e-03	 3.813494e-12
3.635884e-02	 -2.758026e-02	 -7.737363e-04
0	 0	 -3.664686e-03
-1.702064e-02	 -3.261079e-02	 -2.591324e-03
-2.407083e-02	 -4.611863e-02	 2.585037e-12
-1.702064e-02	 -3.261079e-02	 2.591324e-03
0	 0	 3.664686e-03
0	 0	 1.177979e-03
1.007789e-02	 -7.173337e-03	 8.329568e-04
1.425229e-02	 -1.014463e-02	 -1.098098e-12
1.007789e-02	 -7.173337e-03	 -8.329568e-04
0	 0	 -1.177979e-03
-1.921683e-02	 -4.938830e-02	 3.749771e-12
-1.358835e-02	 -3.492280e-02	 1.649160e-03
0	 0	 7.604347e-04
0	 0	 -7.604347e-04
2.025454e-02	 -6.243651e-03	 -3.172263e-12
1.432212e-02	 -4.414928e-03	 -5.377085e-04
-1.358835e-02	 -3.492280e-02	 -1.649160e-03
0	 0	 -2.332264e-03
0	 0	 2.332264e-03
1.432212e-02	 -4.414928e-03	 5.377085e-04
1.855082e-02	 -1.550221e-03	 2.429622e-04
-9.965001e-03	 -3.701523e-02	 -7.099917e-04
0	 0	 -1.004080e-03
-1.409264e-02	 -5.234744e-02	 4.914502e-12
-9.965001e-03	 -3.701523e-02	 7.099917e-04
0	 0	 1.004080e-03
0	 0	 3.436005e-04
2.623483e-02	 -2.192344e-03	 -5.254881e-12
1.855082e-02	 -1.550221e-03	 -2.429622e-04
0	 0	 -3.436005e-04
-2.501590e-02	 -6.096333e-02	 -1.826104e-03
-1.390273e-02	 4.313938e-02	 -1.236726e-03
0	 0	 -4.788665e-03
-1.888069e-02	 -4.616140e-02	 -3.386098e-03
-2.670132e-02	 -6.528208e-02	 3.014684e-12
-2.501590e-02	 -6.096333e-02	 1.826104e-03
0	 0	 4.788665e-03
0	 0	 -3.267042e-03
-1.055718e-02	 3.264389e-02	 -2.310148e-03
-1.493010e-02	 4.616543e-02	 -2.992633e-12
-1.390273e-02	 4.313938e-02	 1.236726e-03
-1.055718e-02	 3.264389e-02	 2.310148e-03
-5.758699e-03	 1.786891e-02	 2.985721e-03
0	 0	 3.267042e-03
-1.036193e-02	 -2.525184e-02	 -4.408605e-03
-1.888069e-02	 -4.616140e-02	 3.386098e-03
-1.036193e-02	 -2.525184e-02	 4.408605e-03
-5.758699e-03	 1.786891e-02	 -2.985721e-03
-2.754385e-02	 -6.519871e-02	 3.659798e-12
-1.125571e-02	 4.776747e-02	 -3.596250e-12
-1.947644e-02	 -4.610245e-02	 -2.733323e-03
0	 0	 -3.865502e-03
-1.947644e-02	 -4.610245e-02	 2.733323e-03
0	 0	 3.865502e-03
0	 0	 -2.627886e-03
-7.958988e-03	 3.377670e-02	 -1.858196e-03
-7.958988e-03	 3.377670e-02	 1.858196e-03
0	 0	 2.627886e-03
-2.002766e-02	 -4.595086e-02	 2.089373e-03
-5.385952e-03	 3.483117e-02	 1.411602e-03
-7.247546e-03	 4.589927e-02	 -7.534970e-04
-3.002032e-03	 1.901210e-02	 1.819103e-03
0	 0	 -2.954819e-03
-1.094026e-02	 -2.511552e-02	 -2.701637e-03
0	 0	 2.954819e-03
-2.832339e-02	 -6.498433e-02	 4.299752e-12
0	 0	 -1.996306e-03
-3.002032e-03	 1.901210e-02	 -1.819103e-03
-7.616887e-03	 4.925872e-02	 -4.199282e-12
0	 0	 1.996306e-03
-2.641213e-02	 -6.063424e-02	 -1.119055e-03
-2.641213e-02	 -6.063424e-02	 1.119055e-03
-2.002766e-02	 -4.595086e-02	 -2.089373e-03
-5.385952e-03	 3.483117e-02	 -1.411602e-03
-7.247546e-03	 4.589927e-02	 7.534970e-04
-1.094026e-02	 -2.511552e-02	 2.701637e-03
-2.910391e-02	 -6.475966e-02	 4.942245e-12
-2.057957e-02	 -4.579200e-02	 1.444237e-03
-2.824293e-03	 3.588152e-02	 9.636701e-04
0	 0	 -1.362835e-03
0	 0	 1.362835e-03
-3.994153e-03	 5.074413e-02	 -4.805416e-12
0	 0	 -2.042459e-03
0	 0	 2.042459e-03
-2.057957e-02	 -4.579200e-02	 -1.444237e-03
-2.824293e-03	 3.588152e-02	 -9.636701e-04
-2.768924e-02	 -6.000148e-02	 -4.100214e-04
0	 0	 -1.117559e-03
-2.768924e-02	 -6.000148e-02	 4.100214e-04
0	 0	 1.117559e-03
-2.981785e-02	 -6.436205e-02	 5.590627e-12
0	 0	 -7.213084e-04
0	 0	 7.213084e-04
-5.703504e-04	 4.845857e-02	 -2.682071e-04
-5.703504e-04	 4.845857e-02	 2.682071e-04
-2.362469e-04	 2.007220e-02	 6.475092e-04
-1.146926e-02	 -2.485343e-02	 -9.898793e-04
-2.108441e-02	 -4.551084e-02	 -7.902338e-04
-2.108441e-02	 -4.551084e-02	 7.902338e-04
-1.146926e-02	 -2.485343e-02	 9.898793e-04
-2.842823e-04	 5.213928e-02	 -5.413684e-12
-2.362469e-04	 2.007220e-02	 -6.475092e-04
-2.010179e-04	 3.686804e-02	 5.100421e-04
-2.010180e-04	 3.686804e-02	 -5.100421e-04
-8.519015e-03	 -2.332925e-02	 -1.675212e-03
-1.081158e-02	 5.320865e-02	 -3.701976e-03
0	 0	 -2.369107e-03
-1.204771e-02	 -3.299254e-02	 3.845040e-12
0	 0	 2.369107e-03
0	 0	 -5.235385e-03
-1.528989e-02	 7.524840e-02	 -4.730409e-12
0	 0	 5.235385e-03
-8.519015e-03	 -2.332925e-02	 1.675212e-03
-1.081158e-02	 5.320865e-02	 3.701976e-03
-1.351775e-02	 -2.245014e-02	 -1.043582e-03
0	 0	 -1.475847e-03
0	 0	 1.475847e-03
-1.160775e-02	 5.316908e-02	 -2.302969e-03
-1.160775e-02	 5.316908e-02	 2.302969e-03
0	 0	 -3.256890e-03
0	 0	 3.256890e-03
-1.351775e-02	 -2.245014e-02	 1.043582e-03
-1.641584e-02	 7.519244e-02	 -5.244749e-12
-1.911698e-02	 -3.174929e-02	 4.965509e-12
-1.742568e-02	 7.449891e-02	 -5.765966e-12
0	 0	 -5.842469e-04
-2.618818e-02	 -3.018901e-02	 6.090826e-12
0	 0	 5.842469e-04
0	 0	 -1.284330e-03
0	 0	 1.284330e-03
-1.851784e-02	 -2.134685e-02	 4.131249e-04
-1.851784e-02	 -2.134685e-02	 -4.131249e-04
-1.232182e-02	 5.267868e-02	 -9.081582e-04
-1.232182e-02	 5.267868e-02	 9.081582e-04
0	 0	 2.159474e-03
-1.542175e-03	 1.272580e-02	 1.998370e-03
-2.765062e-03	 2.328396e-02	 1.526979e-03
-3.723140e-03	 3.072280e-02	 8.277520e-04
-3.910388e-03	 3.292850e-02	 4.863007e-12
-3.723140e-03	 3.072280e-02	 -8.277520e-04
-2.765062e-03	 2.328396e-02	 -1.526979e-03
-1.542175e-03	 1.272580e-02	 -1.998370e-03
0	 0	 -2.159474e-03
0	 0	 1.732352e-03
-9.153692e-03	 3.304356e-02	 5.288293e-12
0	 0	 -1.732352e-03
-6.472638e-03	 2.336532e-02	 -1.224958e-03
-6.472638e-03	 2.336532e-02	 1.224958e-03
-1.011319e-02	 2.339496e-02	 9.274295e-04
-1.314564e-02	 3.082655e-02	 4.972802e-04
0	 0	 1.311583e-03
-5.445102e-03	 1.276878e-02	 1.200541e-03
-1.314564e-02	 3.082655e-02	 -4.972802e-04
-5.445102e-03	 1.276878e-02	 -1.200541e-03
0	 0	 -1.311583e-03
-1.430220e-02	 3.308547e-02	 5.717278e-12
-1.011318e-02	 2.339496e-02	 -9.274295e-04
-1.943880e-02	 3.311307e-02	 6.147686e-12
-1.374531e-02	 2.341448e-02	 -6.289727e-04
0	 0	 8.895017e-04
-1.374531e-02	 2.341448e-02	 6.289727e-04
0	 0	 -8.895017e-04
0	 0	 4.613320e-04
-9.326908e-03	 1.273789e-02	 3.998391e-04
-2.251715e-02	 3.075198e-02	 1.656188e-04
-2.463700e-02	 3.304887e-02	 6.577872e-12
-2.251715e-02	 3.075198e-02	 -1.656188e-04
-1.742099e-02	 2.336908e-02	 -3.262110e-04
-9.326908e-03	 1.273789e-02	 -3.998391e-04
0	 0	 -4.613320e-04
-1.742099e-02	 2.336908e-02	 3.262110e-04
-1.742099e-02	 2.336908e-02	 -3.262110e-04
0	 0	 -4.613320e-04
-9.326908e-03	 1.273789e-02	 -3.998391e-04
-2.251715e-02	 3.075198e-02	 -1.656188e-04
-2.463700e-02	 3.304887e-02	 -6.339892e-12
-2.251715e-02	 3.075198e-02	 1.656188e-04
-1.742099e-02	 2.336908e-02	 3.262110e-04
-9.326907e-03	 1.273789e-02	 3.998391e-04
0	 0	 4.613320e-04
0	 0	 -8.895017e-04
-1.374531e-02	 2.341448e-02	 -6.289727e-04
0	 0	 8.895017e-04
-1.943880e-02	 3.311307e-02	 -6.208125e-12
-1.374531e-02	 2.341448e-02	 6.289727e-04
-1.430220e-02	 3.308547e-02	 -6.075352e-12
-1.011318e-02	 2.339496e-02	 9.274295e-04
0	 0	 -1.311583e-03
-5.445102e-03	 1.276878e-02	 -1.200541e-03
-1.314564e-02	 3.082655e-02	 4.972802e-04
-5.445102e-03	 1.276878e-02	 1.200541e-03
0	 0	 1.311583e-03
-1.011318e-02	 2.339496e-02	 -9.274295e-04
-1.314564e-02	 3.082655e-02	 -4.972802e-04
-6.472638e-03	 2.336532e-02	 -1.224958e-03
-6.472638e-03	 2.336532e-02	 1.224958e-03
0	 0	 -1.732352e-03
-9.153692e-03	 3.304356e-02	 -5.944974e-12
0	 0	 1.732352e-03
0	 0	 -2.159474e-03
-1.542175e-03	 1.272580e-02	 -1.998370e-03
-2.765062e-03	 2.328396e-02	 -1.526979e-03
-3.723140e-03	 3.072280e-02	 -8.277520e-04
-3.910388e-03	 3.292850e-02	 -5.812952e-12
-3.723140e-03	 3.072280e-02	 8.277520e-04
-2.765062e-03	 2.328396e-02	 1.526979e-03
-1.542175e-03	 1.272580e-02	 1.998370e-03
0	 0	 2.159474e-03
-1.232182e-02	 5.267868e-02	 9.081582e-04
-1.232182e-02	 5.267868e-02	 -9.081582e-04
-1.851784e-02	 -2.134685e-02	 4.131249e-04
-1.851784e-02	 -2.134685e-02	 -4.131249e-04
0	 0	 1.284330e-03
0	 0	 -1.284330e-03
0	 0	 5.842469e-04
-2.618818e-02	 -3.018901e-02	 -6.786796e-12
0	 0	 -5.842469e-04
-1.742568e-02	 7.449891e-02	 6.815006e-12
-1.911698e-02	 -3.174929e-02	 -6.827809e-12
-1.641584e-02	 7.519244e-02	 6.010407e-12
-1.351775e-02	 -2.245014e-02	 -1.043582e-03
0	 0	 3.256890e-03
0	 0	 -3.256890e-03
-1.160775e-02	 5.316908e-02	 2.302969e-03
-1.160775e-02	 5.316908e-02	 -2.302969e-03
0	 0	 1.475847e-03
0	 0	 -1.475847e-03
-1.351775e-02	 -2.245014e-02	 1.043582e-03
-1.081158e-02	 5.320865e-02	 -3.701976e-03
-8.519015e-03	 -2.332925e-02	 -1.675212e-03
0	 0	 5.235385e-03
-1.528989e-02	 7.524840e-02	 5.218564e-12
0	 0	 -5.235385e-03
0	 0	 2.369107e-03
-1.204771e-02	 -3.299254e-02	 -6.863940e-12
0	 0	 -2.369107e-03
-1.081158e-02	 5.320865e-02	 3.701976e-03
-8.519015e-03	 -2.332925e-02	 1.675212e-03
-2.010180e-04	 3.686804e-02	 5.100421e-04
-2.010179e-04	 3.686804e-02	 -5.100421e-04
-2.362469e-04	 2.007220e-02	 6.475092e-04
-2.842823e-04	 5.213928e-02	 6.032467e-12
-1.146926e-02	 -2.485343e-02	 9.898793e-04
-2.108441e-02	 -4.551084e-02	 7.902338e-04
-2.108441e-02	 -4.551084e-02	 -7.902338e-04
-1.146926e-02	 -2.485343e-02	 -9.898793e-04
-5.703504e-04	 4.845857e-02	 2.682071e-04
-5.703504e-04	 4.845857e-02	 -2.682071e-04
-2.362469e-04	 2.007220e-02	 -6.475092e-04
0	 0	 7.213084e-04
0	 0	 -7.213084e-04
-2.981785e-02	 -6.436205e-02	 -6.778057e-12
0	 0	 1.117559e-03
-2.768924e-02	 -6.000148e-02	 -4.100214e-04
0	 0	 -1.117559e-03
-2.768924e-02	 -6.000148e-02	 4.100214e-04
-2.824293e-03	 3.588152e-02	 9.636701e-04
-2.057957e-02	 -4.579200e-02	 1.444237e-03
0	 0	 2.042459e-03
0	 0	 -2.042459e-03
-3.994153e-03	 5.074413e-02	 5.269820e-12
0	 0	 1.362835e-03
0	 0	 -1.362835e-03
-2.824293e-03	 3.588152e-02	 -9.636701e-04
-2.057957e-02	 -4.579200e-02	 -1.444237e-03
-2.910391e-02	 -6.475966e-02	 -7.101507e-12
-1.094026e-02	 -2.511552e-02	 -2.701637e-03
-5.385952e-03	 3.483117e-02	 1.411602e-03
-7.247546e-03	 4.589927e-02	 -7.534970e-04
-2.002766e-02	 -4.595086e-02	 2.089373e-03
-2.641213e-02	 -6.063424e-02	 -1.119055e-03
-2.641213e-02	 -6.063424e-02	 1.119055e-03
0	 0	 1.996306e-03
-3.002032e-03	 1.901210e-02	 1.819103e-03
-7.616887e-03	 4.925872e-02	 4.510356e-12
0	 0	 -1.996306e-03
-2.832339e-02	 -6.498433e-02	 -7.428764e-12
0	 0	 2.954819e-03
-1.094026e-02	 -2.511552e-02	 2.701637e-03
0	 0	 -2.954819e-03
-7.247546e-03	 4.589927e-02	 7.534970e-04
-3.002032e-03	 1.901210e-02	 -1.819103e-03
-5.385952e-03	 3.483117e-02	 -1.411602e-03
-2.002766e-02	 -4.595086e-02	 -2.089373e-03
0	 0	 2.627886e-03
-7.958988e-03	 3.377670e-02	 1.858196e-03
-7.958988e-03	 3.377670e-02	 -1.858196e-03
0	 0	 -2.627886e-03
0	 0	 3.865502e-03
-1.947644e-02	 -4.610245e-02	 -2.733323e-03
0	 0	 -3.865502e-03
-1.947644e-02	 -4.610245e-02	 2.733323e-03
-1.125571e-02	 4.776747e-02	 3.751568e-12
-2.754385e-02	 -6.519871e-02	 -7.754157e-12
-5.758699e-03	 1.786891e-02	 2.985721e-03
-1.036193e-02	 -2.525184e-02	 4.408605e-03
-1.888069e-02	 -4.616140e-02	 -3.386098e-03
-1.036193e-02	 -2.525184e-02	 -4.408605e-03
0	 0	 3.267042e-03
-1.055718e-02	 3.264389e-02	 2.310148e-03
-1.493010e-02	 4.616543e-02	 2.996530e-12
-1.390273e-02	 4.313938e-02	 -1.236726e-03
-1.055718e-02	 3.264389e-02	 -2.310148e-03
-5.758699e-03	 1.786891e-02	 -2.985721e-03
0	 0	 -3.267042e-03
0	 0	 4.788665e-03
-1.888069e-02	 -4.616140e-02	 3.386098e-03
-2.670132e-02	 -6.528208e-02	 -8.074637e-12
-2.501590e-02	 -6.096333e-02	 -1.826104e-03
0	 0	 -4.788665e-03
-1.390273e-02	 4.313938e-02	 1.236726e-03
-2.501590e-02	 -6.096333e-02	 1.826104e-03
0	 0	 -3.436005e-04
2.623483e-02	 -2.192344e-03	 4.475382e-12
1.855082e-02	 -1.550221e-03	 2.429622e-04
0	 0	 3.436005e-04
0	 0	 1.004080e-03