# vtk DataFile Version 3.0
Unstructured Grid Example
ASCII
DATASET UNSTRUCTURED_GRID
POINTS 832 float
-1	 0	 0
-1	 0	 3.750000e-01
-1	 0	 7.500000e-01
-1	 0	 1.125000e+00
-1	 0	 1.500000e+00
-1	 0	 1.875000e+00
-1	 0	 2.250000e+00
-1	 0	 2.625000e+00
-1	 0	 3
-9.875000e-01	 0	 0
-9.875000e-01	 0	 1.500000e+00
-9.875000e-01	 0	 3
-9.875000e-01	 0	 2.250000e+00
-9.875000e-01	 0	 7.500000e-01
-9.833054e-01	 -1.819631e-01	 7.500000e-01
-9.833054e-01	 -1.819631e-01	 0
-9.833054e-01	 -1.819631e-01	 1.500000e+00
-9.833054e-01	 -1.819631e-01	 3.000000e+00
-9.833054e-01	 1.819631e-01	 2.250000e+00
-9.833054e-01	 1.819631e-01	 0
-9.833054e-01	 1.819631e-01	 1.500000e+00
-9.833054e-01	 1.819631e-01	 3.000000e+00
-9.833054e-01	 1.819631e-01	 7.500000e-01
-9.833054e-01	 -1.819631e-01	 2.250000e+00
-9.750000e-01	 0	 7.500000e-01
-9.750000e-01	 0	 1.125000e+00
-9.750000e-01	 0	 0
-9.750000e-01	 0	 3.750000e-01
-9.750000e-01	 0	 1.875000e+00
-9.750000e-01	 0	 2.625000e+00
-9.750000e-01	 0	 3
-9.750000e-01	 0	 1.500000e+00
-9.750000e-01	 0	 2.250000e+00
-9.625000e-01	 0	 1.500000e+00
-9.625000e-01	 0	 2.250000e+00
-9.625000e-01	 0	 0
-9.625000e-01	 0	 7.500000e-01
-9.625000e-01	 0	 3
-9.587227e-01	 -1.774140e-01	 0
-9.587227e-01	 -1.774140e-01	 3.000000e+00
-9.587227e-01	 -1.774140e-01	 1.500000e+00
-9.587227e-01	 1.774140e-01	 0
-9.587227e-01	 1.774140e-01	 3.000000e+00
-9.587227e-01	 1.774140e-01	 1.500000e+00
-9.587227e-01	 1.774140e-01	 7.500000e-01
-9.587227e-01	 -1.774140e-01	 7.500000e-01
-9.587227e-01	 -1.774140e-01	 2.250000e+00
-9.587227e-01	 1.774140e-01	 2.250000e+00
-9.500000e-01	 0	 0
-9.500000e-01	 0	 3.750000e-01
-9.500000e-01	 0	 1.125000e+00
-9.500000e-01	 0	 1.500000e+00
-9.500000e-01	 0	 1.875000e+00
-9.500000e-01	 0	 2.250000e+00
-9.500000e-01	 0	 2.625000e+00
-9.500000e-01	 0	 3
-9.500000e-01	 0	 7.500000e-01
-9.341401e-01	 -1.728649e-01	 1.500000e+00
-9.341401e-01	 -1.728649e-01	 0
-9.341401e-01	 -1.728649e-01	 3.000000e+00
-9.341401e-01	 1.728649e-01	 2.250000e+00
-9.341401e-01	 1.728649e-01	 0
-9.341401e-01	 1.728649e-01	 1.500000e+00
-9.341401e-01	 1.728649e-01	 3.000000e+00
-9.341401e-01	 -1.728649e-01	 7.500000e-01
-9.341401e-01	 -1.728649e-01	 2.250000e+00
-9.341401e-01	 1.728649e-01	 7.500000e-01
-9.297883e-01	 -3.680947e-01	 1.125000e+00
-9.297883e-01	 -3.680947e-01	 0
-9.297883e-01	 -3.680947e-01	 7.500000e-01
-9.297883e-01	 -3.680947e-01	 1.500000e+00
-9.297883e-01	 -3.680947e-01	 1.875000e+00
-9.297883e-01	 -3.680947e-01	 2.250000e+00
-9.297883e-01	 -3.680947e-01	 2.625000e+00
-9.297883e-01	 -3.680947e-01	 3.000000e+00
-9.297883e-01	 -3.680947e-01	 3.750000e-01
-9.297883e-01	 3.680947e-01	 3.750000e-01
-9.297883e-01	 3.680947e-01	 2.250000e+00
-9.297883e-01	 3.680947e-01	 2.625000e+00
-9.297883e-01	 3.680947e-01	 0
-9.297883e-01	 3.680947e-01	 7.500000e-01
-9.297883e-01	 3.680947e-01	 1.500000e+00
-9.297883e-01	 3.680947e-01	 1.875000e+00
-9.297883e-01	 3.680947e-01	 3.000000e+00
-9.297883e-01	 3.680947e-01	 1.125000e+00
-9.181659e-01	 3.634935e-01	 7.500000e-01
-9.181659e-01	 -3.634935e-01	 0
-9.181659e-01	 -3.634935e-01	 7.500000e-01
-9.181659e-01	 -3.634935e-01	 2.250000e+00
-9.181659e-01	 -3.634935e-01	 3
-9.181659e-01	 3.634935e-01	 0
-9.181659e-01	 3.634935e-01	 2.250000e+00
-9.181659e-01	 3.634935e-01	 3
-9.181659e-01	 -3.634935e-01	 1.500000e+00
-9.181659e-01	 3.634935e-01	 1.500000e+00
-9.065436e-01	 -3.588923e-01	 1.125000e+00
-9.065436e-01	 -3.588923e-01	 2.625000e+00
-9.065436e-01	 -3.588923e-01	 0
-9.065436e-01	 -3.588923e-01	 3.750000e-01
-9.065436e-01	 -3.588923e-01	 1.500000e+00
-9.065436e-01	 -3.588923e-01	 3
-9.065436e-01	 3.588923e-01	 2.625000e+00
-9.065436e-01	 3.588923e-01	 1.125000e+00
-9.065436e-01	 3.588923e-01	 0
-9.065436e-01	 3.588923e-01	 3.750000e-01
-9.065436e-01	 3.588923e-01	 3
-9.065436e-01	 -3.588923e-01	 7.500000e-01
-9.065436e-01	 -3.588923e-01	 1.875000e+00
-9.065436e-01	 3.588923e-01	 1.875000e+00
-9.065436e-01	 3.588923e-01	 1.500000e+00
-9.065436e-01	 -3.588923e-01	 2.250000e+00
-9.065436e-01	 3.588923e-01	 7.500000e-01
-9.065436e-01	 3.588923e-01	 2.250000e+00
-8.949212e-01	 3.542912e-01	 1.500000e+00
-8.949212e-01	 -3.542912e-01	 1.500000e+00
-8.949212e-01	 -3.542912e-01	 0
-8.949212e-01	 -3.542912e-01	 3.000000e+00
-8.949212e-01	 3.542912e-01	 0
-8.949212e-01	 3.542912e-01	 3.000000e+00
-8.949212e-01	 -3.542912e-01	 2.250000e+00
-8.949212e-01	 -3.542912e-01	 7.500000e-01
-8.949212e-01	 3.542912e-01	 2.250000e+00
-8.949212e-01	 3.542912e-01	 7.500000e-01
-8.832989e-01	 -3.496900e-01	 1.125000e+00
-8.832989e-01	 -3.496900e-01	 1.875000e+00
-8.832989e-01	 -3.496900e-01	 2.625000e+00
-8.832989e-01	 -3.496900e-01	 2.250000e+00
-8.832989e-01	 3.496900e-01	 1.125000e+00
-8.832989e-01	 -3.496900e-01	 0
-8.832989e-01	 -3.496900e-01	 3.000000e+00
-8.832989e-01	 -3.496900e-01	 3.750000e-01
-8.832989e-01	 -3.496900e-01	 7.500000e-01
-8.832989e-01	 3.496900e-01	 3.750000e-01
-8.832989e-01	 3.496900e-01	 7.500000e-01
-8.832989e-01	 3.496900e-01	 2.250000e+00
-8.832989e-01	 3.496900e-01	 2.625000e+00
-8.832989e-01	 3.496900e-01	 0
-8.832989e-01	 3.496900e-01	 1.875000e+00
-8.832989e-01	 3.496900e-01	 3.000000e+00
-8.832989e-01	 -3.496900e-01	 1.500000e+00
-8.832989e-01	 3.496900e-01	 1.500000e+00
-8.369955e-01	 -5.472098e-01	 0
-8.369955e-01	 -5.472098e-01	 7.500000e-01
-8.369955e-01	 -5.472098e-01	 1.500000e+00
-8.369955e-01	 -5.472098e-01	 2.250000e+00
-8.369955e-01	 -5.472098e-01	 3
-8.369955e-01	 5.472098e-01	 0
-8.369955e-01	 5.472098e-01	 7.500000e-01
-8.369955e-01	 5.472098e-01	 1.500000e+00
-8.369955e-01	 5.472098e-01	 2.250000e+00
-8.369955e-01	 5.472098e-01	 3
-8.160706e-01	 -5.335295e-01	 7.500000e-01
-8.160706e-01	 5.335295e-01	 7.500000e-01
-8.160706e-01	 -5.335295e-01	 1.500000e+00
-8.160706e-01	 -5.335295e-01	 2.250000e+00
-8.160706e-01	 5.335295e-01	 1.500000e+00
-8.160706e-01	 5.335295e-01	 2.250000e+00
-8.160706e-01	 -5.335295e-01	 0
-8.160706e-01	 -5.335295e-01	 3.000000e+00
-8.160706e-01	 5.335295e-01	 0
-8.160706e-01	 5.335295e-01	 3.000000e+00
-7.951457e-01	 -5.198493e-01	 7.500000e-01
-7.951457e-01	 5.198493e-01	 7.500000e-01
-7.951457e-01	 -5.198493e-01	 0
-7.951457e-01	 -5.198493e-01	 1.500000e+00
-7.951457e-01	 -5.198493e-01	 2.250000e+00
-7.951457e-01	 -5.198493e-01	 3
-7.951457e-01	 5.198493e-01	 0
-7.951457e-01	 5.198493e-01	 1.500000e+00
-7.951457e-01	 5.198493e-01	 2.250000e+00
-7.951457e-01	 5.198493e-01	 3
-7.071068e-01	 -7.071068e-01	 0
-7.071068e-01	 -7.071068e-01	 3.750000e-01
-7.071068e-01	 -7.071068e-01	 7.500000e-01
-7.071068e-01	 -7.071068e-01	 1.125000e+00
-7.071068e-01	 -7.071068e-01	 1.500000e+00
-7.071068e-01	 -7.071068e-01	 1.875000e+00
-7.071068e-01	 -7.071068e-01	 2.250000e+00
-7.071068e-01	 -7.071068e-01	 2.625000e+00
-7.071068e-01	 -7.071068e-01	 3.000000e+00
-7.071068e-01	 7.071068e-01	 0
-7.071068e-01	 7.071068e-01	 3.750000e-01
-7.071068e-01	 7.071068e-01	 7.500000e-01
-7.071068e-01	 7.071068e-01	 1.125000e+00
-7.071068e-01	 7.071068e-01	 1.500000e+00
-7.071068e-01	 7.071068e-01	 1.875000e+00
-7.071068e-01	 7.071068e-01	 2.250000e+00
-7.071068e-01	 7.071068e-01	 2.625000e+00
-7.071068e-01	 7.071068e-01	 3.000000e+00
-6.982679e-01	 -6.982679e-01	 7.500000e-01
-6.982679e-01	 6.982679e-01	 7.500000e-01
-6.982679e-01	 -6.982679e-01	 0
-6.982679e-01	 -6.982679e-01	 2.250000e+00
-6.982679e-01	 -6.982679e-01	 3.000000e+00
-6.982679e-01	 6.982679e-01	 0
-6.982679e-01	 6.982679e-01	 2.250000e+00
-6.982679e-01	 6.982679e-01	 3.000000e+00
-6.982679e-01	 -6.982679e-01	 1.500000e+00
-6.982679e-01	 6.982679e-01	 1.500000e+00
-6.894291e-01	 -6.894291e-01	 3.750000e-01
-6.894291e-01	 -6.894291e-01	 2.625000e+00
-6.894291e-01	 -6.894291e-01	 0
-6.894291e-01	 -6.894291e-01	 1.500000e+00
-6.894291e-01	 -6.894291e-01	 2.250000e+00
-6.894291e-01	 -6.894291e-01	 3.000000e+00
-6.894291e-01	 6.894291e-01	 3.750000e-01
-6.894291e-01	 6.894291e-01	 2.625000e+00
-6.894291e-01	 -6.894291e-01	 1.875000e+00
-6.894291e-01	 6.894291e-01	 1.875000e+00
-6.894291e-01	 -6.894291e-01	 7.500000e-01
-6.894291e-01	 -6.894291e-01	 1.125000e+00
-6.894291e-01	 6.894291e-01	 0
-6.894291e-01	 6.894291e-01	 1.500000e+00
-6.894291e-01	 6.894291e-01	 2.250000e+00
-6.894291e-01	 6.894291e-01	 3.000000e+00
-6.894291e-01	 6.894291e-01	 7.500000e-01
-6.894291e-01	 6.894291e-01	 1.125000e+00
-6.805903e-01	 6.805903e-01	 7.500000e-01
-6.805903e-01	 -6.805903e-01	 7.500000e-01
-6.805903e-01	 -6.805903e-01	 0
-6.805903e-01	 -6.805903e-01	 1.500000e+00
-6.805903e-01	 -6.805903e-01	 3.000000e+00
-6.805903e-01	 6.805903e-01	 0
-6.805903e-01	 6.805903e-01	 1.500000e+00
-6.805903e-01	 6.805903e-01	 3.000000e+00
-6.805903e-01	 6.805903e-01	 2.250000e+00
-6.805903e-01	 -6.805903e-01	 2.250000e+00
-6.717514e-01	 -6.717514e-01	 2.625000e+00
-6.717514e-01	 6.717514e-01	 2.625000e+00
-6.717514e-01	 -6.717514e-01	 0
-6.717514e-01	 -6.717514e-01	 3.750000e-01
-6.717514e-01	 -6.717514e-01	 7.500000e-01
-6.717514e-01	 -6.717514e-01	 1.125000e+00
-6.717514e-01	 -6.717514e-01	 1.875000e+00
-6.717514e-01	 -6.717514e-01	 3.000000e+00
-6.717514e-01	 -6.717514e-01	 2.250000e+00
-6.717514e-01	 6.717514e-01	 1.500000e+00
-6.717514e-01	 6.717514e-01	 0
-6.717514e-01	 6.717514e-01	 3.750000e-01
-6.717514e-01	 6.717514e-01	 7.500000e-01
-6.717514e-01	 6.717514e-01	 1.125000e+00
-6.717514e-01	 6.717514e-01	 1.875000e+00
-6.717514e-01	 6.717514e-01	 3.000000e+00
-6.717514e-01	 -6.717514e-01	 1.500000e+00
-6.717514e-01	 6.717514e-01	 2.250000e+00
-5.472098e-01	 -8.369955e-01	 0
-5.472098e-01	 -8.369955e-01	 7.500000e-01
-5.472098e-01	 -8.369955e-01	 1.500000e+00
-5.472098e-01	 -8.369955e-01	 2.250000e+00
-5.472098e-01	 -8.369955e-01	 3
-5.472098e-01	 8.369955e-01	 0
-5.472098e-01	 8.369955e-01	 7.500000e-01
-5.472098e-01	 8.369955e-01	 1.500000e+00
-5.472098e-01	 8.369955e-01	 2.250000e+00
-5.472098e-01	 8.369955e-01	 3
-5.335295e-01	 -8.160706e-01	 1.500000e+00
-5.335295e-01	 -8.160706e-01	 2.250000e+00
-5.335295e-01	 8.160706e-01	 0
-5.335295e-01	 8.160706e-01	 3.000000e+00
[...]
POINT_DATA 832
VECTORS displacement float
0	 0	 -3.466876e-02
1.820407e-11	 -1.573227e-11	 -3.466876e-02
3.021518e-11	 -2.729470e-11	 -3.466876e-02
3.226219e-11	 -3.256684e-11	 -3.466876e-02
2.685713e-11	 -3.228966e-11	 -3.466876e-02
2.307846e-11	 -2.730061e-11	 -3.466876e-02
1.883103e-11	 -1.958448e-11	 -3.466876e-02
1.053692e-11	 -1.022906e-11	 -3.466876e-02
0	 0	 -3.466876e-02
0	 0	 -3.466876e-02
2.688925e-11	 -3.312474e-11	 -3.466876e-02
0	 0	 -3.466876e-02
1.886489e-11	 -1.995502e-11	 -3.466876e-02
3.029982e-11	 -2.848817e-11	 -3.466876e-02
9.995256e-12	 -2.820727e-11	 -3.466876e-02
0	 0	 -3.466876e-02
1.221479e-11	 -3.323079e-11	 -3.466876e-02
0	 0	 -3.466876e-02
2.313997e-11	 -1.978503e-11	 -3.466876e-02
0	 0	 -3.466876e-02
3.828232e-11	 -3.319368e-11	 -3.466876e-02
0	 0	 -3.466876e-02
4.372915e-11	 -2.910702e-11	 -3.466876e-02
1.097151e-11	 -2.019065e-11	 -3.466876e-02
3.035770e-11	 -2.967676e-11	 -3.466876e-02
3.235932e-11	 -3.486411e-11	 -3.466876e-02
0	 0	 -3.466876e-02
1.825229e-11	 -1.737191e-11	 -3.466876e-02
2.313548e-11	 -2.849197e-11	 -3.466876e-02
1.055185e-11	 -1.056282e-11	 -3.466876e-02
0	 0	 -3.466876e-02
2.691662e-11	 -3.396897e-11	 -3.466876e-02
1.888638e-11	 -2.032788e-11	 -3.466876e-02
2.694194e-11	 -3.480246e-11	 -3.466876e-02
1.890005e-11	 -2.070067e-11	 -3.466876e-02
0	 0	 -3.466876e-02
3.040643e-11	 -3.085703e-11	 -3.466876e-02
0	 0	 -3.466876e-02
0	 0	 -3.466876e-02
0	 0	 -3.466876e-02
1.265932e-11	 -3.563200e-11	 -3.466876e-02
0	 0	 -3.466876e-02
0	 0	 -3.466876e-02
3.808516e-11	 -3.458597e-11	 -3.466876e-02
4.359865e-11	 -3.031968e-11	 -3.466876e-02
1.059304e-11	 -3.138975e-11	 -3.466876e-02
1.123848e-11	 -2.156903e-11	 -3.466876e-02
2.309495e-11	 -2.025726e-11	 -3.466876e-02
0	 0	 -3.466876e-02
1.824998e-11	 -1.900494e-11	 -3.466876e-02
3.239467e-11	 -3.715947e-11	 -3.466876e-02
2.695972e-11	 -3.563724e-11	 -3.466876e-02
2.317056e-11	 -2.968644e-11	 -3.466876e-02
1.890157e-11	 -2.107086e-11	 -3.466876e-02
1.054341e-11	 -1.090408e-11	 -3.466876e-02
0	 0	 -3.466876e-02
3.042468e-11	 -3.204048e-11	 -3.466876e-02
1.305002e-11	 -3.805128e-11	 -3.466876e-02
0	 0	 -3.466876e-02
0	 0	 -3.466876e-02
2.302868e-11	 -2.072238e-11	 -3.466876e-02
0	 0	 -3.466876e-02
3.787074e-11	 -3.598191e-11	 -3.466876e-02
0	 0	 -3.466876e-02
1.114384e-11	 -3.460889e-11	 -3.466876e-02
1.146299e-11	 -2.295937e-11	 -3.466876e-02
4.336870e-11	 -3.151942e-11	 -3.466876e-02
-1.502402e-11	 -4.085893e-11	 -3.466876e-02
0	 0	 -3.466876e-02
-1.663900e-11	 -3.581506e-11	 -3.466876e-02
-9.532618e-12	 -3.879850e-11	 -3.466876e-02
-4.681425e-12	 -3.249394e-11	 -3.466876e-02
-1.809684e-12	 -2.372427e-11	 -3.466876e-02
-2.204926e-13	 -1.265323e-11	 -3.466876e-02
0	 0	 -3.466876e-02
-1.253347e-11	 -2.185336e-11	 -3.466876e-02
3.018722e-11	 -1.850550e-11	 -3.466876e-02
2.595478e-11	 -2.039005e-11	 -3.466876e-02
1.310492e-11	 -1.017506e-11	 -3.466876e-02
0	 0	 -3.466876e-02
4.777532e-11	 -3.116713e-11	 -3.466876e-02
4.742722e-11	 -3.576234e-11	 -3.466876e-02
3.745832e-11	 -2.930452e-11	 -3.466876e-02
0	 0	 -3.466876e-02
5.329025e-11	 -3.722455e-11	 -3.466876e-02
4.786012e-11	 -3.125125e-11	 -3.466876e-02
0	 0	 -3.466876e-02
-1.599097e-11	 -3.764154e-11	 -3.466876e-02
-1.451631e-12	 -2.464383e-11	 -3.466876e-02
0	 0	 -3.466876e-02
0	 0	 -3.466876e-02
2.593696e-11	 -2.052115e-11	 -3.466876e-02
0	 0	 -3.466876e-02
-8.933533e-12	 -4.036195e-11	 -3.466876e-02
4.731454e-11	 -3.625118e-11	 -3.466876e-02
-1.361623e-11	 -4.465260e-11	 -3.466876e-02
1.578054e-13	 -1.365674e-11	 -3.466876e-02
0	 0	 -3.466876e-02
-1.173127e-11	 -2.407654e-11	 -3.466876e-02
-8.342958e-12	 -4.192210e-11	 -3.466876e-02
0	 0	 -3.466876e-02
1.311301e-11	 -1.023773e-11	 -3.466876e-02
5.323056e-11	 -3.783342e-11	 -3.466876e-02
0	 0	 -3.466876e-02
3.027248e-11	 -1.853734e-11	 -3.466876e-02
0	 0	 -3.466876e-02
-1.533434e-11	 -3.945852e-11	 -3.466876e-02
-3.747442e-12	 -3.493485e-11	 -3.466876e-02
3.729162e-11	 -2.998802e-11	 -3.466876e-02
4.719481e-11	 -3.673069e-11	 -3.466876e-02
-1.097016e-12	 -2.556101e-11	 -3.466876e-02
4.792099e-11	 -3.132965e-11	 -3.466876e-02
2.591799e-11	 -2.065052e-11	 -3.466876e-02
4.706286e-11	 -3.721110e-11	 -3.466876e-02
-7.751260e-12	 -4.347474e-11	 -3.466876e-02
0	 0	 -3.466876e-02
0	 0	 -3.466876e-02
0	 0	 -3.466876e-02
0	 0	 -3.466876e-02
-7.421676e-13	 -2.647416e-11	 -3.466876e-02
-1.467894e-11	 -4.126154e-11	 -3.466876e-02
2.589358e-11	 -2.078244e-11	 -3.466876e-02
4.797232e-11	 -3.141035e-11	 -3.466876e-02
-1.219797e-11	 -4.842088e-11	 -3.466876e-02
-2.831707e-12	 -3.736503e-11	 -3.466876e-02
5.276950e-13	 -1.465587e-11	 -3.466876e-02
-3.897425e-13	 -2.739131e-11	 -3.466876e-02
5.310356e-11	 -3.841716e-11	 -3.466876e-02
0	 0	 -3.466876e-02
0	 0	 -3.466876e-02
-1.089481e-11	 -2.627578e-11	 -3.466876e-02
-1.400689e-11	 -4.307403e-11	 -3.466876e-02
3.029536e-11	 -1.855058e-11	 -3.466876e-02
4.799958e-11	 -3.147511e-11	 -3.466876e-02
2.586699e-11	 -2.091031e-11	 -3.466876e-02
1.311722e-11	 -1.029705e-11	 -3.466876e-02
0	 0	 -3.466876e-02
3.710082e-11	 -3.066190e-11	 -3.466876e-02
0	 0	 -3.466876e-02
-7.165956e-12	 -4.503938e-11	 -3.466876e-02
4.691716e-11	 -3.769028e-11	 -3.466876e-02
0	 0	 -3.466876e-02
-3.976493e-11	 -4.887715e-11	 -3.466876e-02
-3.151918e-11	 -5.036061e-11	 -3.466876e-02
-1.446523e-11	 -3.088500e-11	 -3.466876e-02
0	 0	 -3.466876e-02
0	 0	 -3.466876e-02
4.610935e-11	 -3.085908e-11	 -3.466876e-02
5.146633e-11	 -3.806080e-11	 -3.466876e-02
2.738276e-11	 -2.081353e-11	 -3.466876e-02
0	 0	 -3.466876e-02
-3.848509e-11	 -5.106329e-11	 -3.466876e-02
4.650573e-11	 -3.045540e-11	 -3.466876e-02
-3.009636e-11	 -5.268477e-11	 -3.466876e-02
-1.361696e-11	 -3.228820e-11	 -3.466876e-02
5.146844e-11	 -3.829034e-11	 -3.466876e-02
2.735248e-11	 -2.097094e-11	 -3.466876e-02
0	 0	 -3.466876e-02
0	 0	 -3.466876e-02
0	 0	 -3.466876e-02
0	 0	 -3.466876e-02
-3.709929e-11	 -5.320386e-11	 -3.466876e-02
4.686944e-11	 -3.002345e-11	 -3.466876e-02
0	 0	 -3.466876e-02
-2.862020e-11	 -5.499836e-11	 -3.466876e-02
-1.274406e-11	 -3.368874e-11	 -3.466876e-02
0	 0	 -3.466876e-02
0	 0	 -3.466876e-02
5.141994e-11	 -3.848751e-11	 -3.466876e-02
2.731575e-11	 -2.112635e-11	 -3.466876e-02
0	 0	 -3.466876e-02
0	 0	 -3.466876e-02
-3.102850e-11	 -3.602911e-11	 -3.466876e-02
-4.905657e-11	 -5.862319e-11	 -3.466876e-02
-5.361088e-11	 -6.751531e-11	 -3.466876e-02
-4.561517e-11	 -6.281387e-11	 -3.466876e-02
-3.418550e-11	 -5.210906e-11	 -3.466876e-02
-2.361693e-11	 -3.909675e-11	 -3.466876e-02
-1.249156e-11	 -2.163156e-11	 -3.466876e-02
0	 0	 -3.466876e-02
0	 0	 -3.466876e-02
2.362403e-11	 -1.467889e-11	 -3.466876e-02
4.105512e-11	 -2.686249e-11	 -3.466876e-02
5.069647e-11	 -3.590097e-11	 -3.466876e-02
4.988832e-11	 -3.717280e-11	 -3.466876e-02
4.120237e-11	 -3.106130e-11	 -3.466876e-02
2.835132e-11	 -2.136626e-11	 -3.466876e-02
1.390476e-11	 -1.030913e-11	 -3.466876e-02
0	 0	 -3.466876e-02
-4.885667e-11	 -5.909348e-11	 -3.466876e-02
4.143231e-11	 -2.658518e-11	 -3.466876e-02
0	 0	 -3.466876e-02
-2.322168e-11	 -3.956981e-11	 -3.466876e-02
0	 0	 -3.466876e-02
0	 0	 -3.466876e-02
2.835757e-11	 -2.141474e-11	 -3.466876e-02
0	 0	 -3.466876e-02
-4.506735e-11	 -6.352808e-11	 -3.466876e-02
5.016117e-11	 -3.702629e-11	 -3.466876e-02
-3.086250e-11	 -3.641689e-11	 -3.466876e-02
-1.200481e-11	 -2.220682e-11	 -3.466876e-02
0	 0	 -3.466876e-02
-4.450170e-11	 -6.422340e-11	 -3.466876e-02
-2.281860e-11	 -4.004051e-11	 -3.466876e-02
0	 0	 -3.466876e-02
2.418648e-11	 -1.422411e-11	 -3.466876e-02
1.388415e-11	 -1.038872e-11	 -3.466876e-02
-3.312189e-11	 -5.339256e-11	 -3.466876e-02
4.140715e-11	 -3.102119e-11	 -3.466876e-02
-4.862770e-11	 -5.952380e-11	 -3.466876e-02
-5.277326e-11	 -6.870138e-11	 -3.466876e-02
0	 0	 -3.466876e-02
5.042159e-11	 -3.687704e-11	 -3.466876e-02
2.835912e-11	 -2.146655e-11	 -3.466876e-02
0	 0	 -3.466876e-02
4.179970e-11	 -2.630907e-11	 -3.466876e-02
5.139987e-11	 -3.542783e-11	 -3.466876e-02
4.216558e-11	 -2.603251e-11	 -3.466876e-02
-4.839347e-11	 -5.994858e-11	 -3.466876e-02
0	 0	 -3.466876e-02
-4.393460e-11	 -6.490535e-11	 -3.466876e-02
0	 0	 -3.466876e-02
0	 0	 -3.466876e-02
5.067645e-11	 -3.671801e-11	 -3.466876e-02
0	 0	 -3.466876e-02
2.835849e-11	 -2.151363e-11	 -3.466876e-02
-2.241442e-11	 -4.050041e-11	 -3.466876e-02
-1.150439e-11	 -2.276539e-11	 -3.466876e-02
1.386614e-11	 -1.047089e-11	 -3.466876e-02
0	 0	 -3.466876e-02
-3.063012e-11	 -3.673492e-11	 -3.466876e-02
-4.811836e-11	 -6.033563e-11	 -3.466876e-02
-5.185103e-11	 -6.979334e-11	 -3.466876e-02
-3.203438e-11	 -5.464231e-11	 -3.466876e-02
0	 0	 -3.466876e-02
-2.200072e-11	 -4.095601e-11	 -3.466876e-02
5.092236e-11	 -3.654834e-11	 -3.466876e-02
0	 0	 -3.466876e-02
2.473847e-11	 -1.375894e-11	 -3.466876e-02
4.252947e-11	 -2.575146e-11	 -3.466876e-02
5.206823e-11	 -3.492747e-11	 -3.466876e-02
4.159173e-11	 -3.096444e-11	 -3.466876e-02
0	 0	 -3.466876e-02
-4.334332e-11	 -6.556869e-11	 -3.466876e-02
2.835855e-11	 -2.155899e-11	 -3.466876e-02
0	 0	 -3.466876e-02
-4.687961e-11	 -5.967849e-11	 -3.466876e-02
-4.887694e-11	 -6.911884e-11	 -3.466876e-02
-2.779027e-11	 -4.507016e-11	 -3.466876e-02
0	 0	 -3.466876e-02
0	 0	 -3.466876e-02
3.662889e-11	 -2.155125e-11	 -3.466876e-02
4.674933e-11	 -3.285592e-11	 -3.466876e-02
2.864248e-11	 -2.126518e-11	 -3.466876e-02
0	 0	 -3.466876e-02
-4.906686e-11	 -6.917434e-11	 -3.466876e-02
-2.733238e-11	 -4.549862e-11	 -3.466876e-02
0	 0	 -3.466876e-02
0	 0	 -3.466876e-02
4.739444e-11	 -3.255774e-11	 -3.466876e-02
2.866585e-11	 -2.133239e-11	 -3.466876e-02
-4.808534e-11	 -5.906719e-11	 -3.466876e-02
0	 0	 -3.466876e-02
0	 0	 -3.466876e-02
3.732210e-11	 -2.118900e-11	 -3.466876e-02
3.802141e-11	 -2.082486e-11	 -3.466876e-02
-4.921576e-11	 -5.830954e-11	 -3.466876e-02
0	 0	 -3.466876e-02
-4.918914e-11	 -6.912103e-11	 -3.466876e-02
-2.684767e-11	 -4.589636e-11	 -3.466876e-02
0	 0	 -3.466876e-02
0	 0	 -3.466876e-02
4.803211e-11	 -3.224754e-11	 -3.466876e-02
2.868622e-11	 -2.139663e-11	 -3.466876e-02
0	 0	 -3.466876e-02
-4.374447e-11	 -5.594531e-11	 -3.466876e-02
4.290134e-11	 -2.419623e-11	 -3.466876e-02
0	 0	 -3.466876e-02
-3.624275e-11	 -4.238473e-11	 -3.466876e-02
-4.331310e-11	 -6.187276e-11	 -3.466876e-02
-3.765411e-11	 -5.943084e-11	 -3.466876e-02
0	 0	 -3.466876e-02
0	 0	 -3.466876e-02
3.388786e-11	 -1.628435e-11	 -3.466876e-02
4.429037e-11	 -2.749340e-11	 -3.466876e-02
3.922067e-11	 -2.724927e-11	 -3.466876e-02
2.873281e-11	 -2.129710e-11	 -3.466876e-02
1.514710e-11	 -1.177679e-11	 -3.466876e-02
0	 0	 -3.466876e-02
-2.100714e-11	 -2.360901e-11	 -3.466876e-02
-2.802738e-11	 -4.751209e-11	 -3.466876e-02
-1.533862e-11	 -2.771693e-11	 -3.466876e-02
1.812517e-11	 -6.692942e-12	 -3.466876e-02
-4.432664e-11	 -6.160187e-11	 -3.466876e-02
4.463456e-11	 -2.744333e-11	 -3.466876e-02
-3.792544e-11	 -4.182080e-11	 -3.466876e-02
0	 0	 -3.466876e-02
-2.807556e-11	 -4.759594e-11	 -3.466876e-02
0	 0	 -3.466876e-02
0	 0	 -3.466876e-02
3.425016e-11	 -1.618577e-11	 -3.466876e-02
2.875962e-11	 -2.134370e-11	 -3.466876e-02
0	 0	 -3.466876e-02
-2.812294e-11	 -4.766274e-11	 -3.466876e-02
2.879084e-11	 -2.138350e-11	 -3.466876e-02
4.378744e-11	 -2.396695e-11	 -3.466876e-02
1.503164e-11	 -1.187234e-11	 -3.466876e-02
0	 0	 -3.466876e-02
-2.315024e-11	 -2.285312e-11	 -3.466876e-02
0	 0	 -3.466876e-02
-4.532297e-11	 -6.131104e-11	 -3.466876e-02
0	 0	 -3.466876e-02
1.862259e-11	 -6.536907e-12	 -3.466876e-02
4.498282e-11	 -2.738128e-11	 -3.466876e-02
0	 0	 -3.466876e-02
-4.682566e-11	 -5.491957e-11	 -3.466876e-02
-3.843289e-11	 -5.933883e-11	 -3.466876e-02
-3.958539e-11	 -4.124518e-11	 -3.466876e-02
3.462087e-11	 -1.607708e-11	 -3.466876e-02
3.953793e-11	 -2.725663e-11	 -3.466876e-02
-1.533720e-11	 -2.781664e-11	 -3.466876e-02
-4.630866e-11	 -6.100952e-11	 -3.466876e-02
-2.816894e-11	 -4.772239e-11	 -3.466876e-02
2.882534e-11	 -2.141409e-11	 -3.466876e-02
0	 0	 -3.466876e-02
0	 0	 -3.466876e-02
4.533024e-11	 -2.731667e-11	 -3.466876e-02
0	 0	 -3.466876e-02
0	 0	 -3.466876e-02
-4.123386e-11	 -4.066310e-11	 -3.466876e-02
3.498444e-11	 -1.596220e-11	 -3.466876e-02
-4.986257e-11	 -5.382419e-11	 -3.466876e-02
0	 0	 -3.466876e-02
-3.917849e-11	 -5.918773e-11	 -3.466876e-02
0	 0	 -3.466876e-02
-4.729327e-11	 -6.068152e-11	 -3.466876e-02
0	 0	 -3.466876e-02
0	 0	 -3.466876e-02
4.466434e-11	 -2.370210e-11	 -3.466876e-02
3.984556e-11	 -2.722861e-11	 -3.466876e-02
1.491444e-11	 -1.195546e-11	 -3.466876e-02
-2.526714e-11	 -2.206170e-11	 -3.466876e-02
-4.288662e-11	 -4.005603e-11	 -3.466876e-02
-2.820517e-11	 -4.776867e-11	 -3.466876e-02
-1.532338e-11	 -2.787828e-11	 -3.466876e-02
4.567136e-11	 -2.724199e-11	 -3.466876e-02
1.911831e-11	 -6.381369e-12	 -3.466876e-02
2.885007e-11	 -2.144423e-11	 -3.466876e-02
3.534231e-11	 -1.584274e-11	 -3.466876e-02
-2.892518e-11	 -1.714044e-11	 -3.466876e-02
3.025704e-11	 -7.764131e-12	 -3.466876e-02
0	 0	 -3.466876e-02
-3.831528e-11	 -4.529415e-11	 -3.466876e-02
0	 0	 -3.466876e-02
0	 0	 -3.466876e-02
4.115261e-11	 -1.953625e-11	 -3.466876e-02
0	 0	 -3.466876e-02
-2.651788e-11	 -4.498118e-11	 -3.466876e-02
2.753741e-11	 -1.901533e-11	 -3.466876e-02
-3.201112e-11	 -1.660021e-11	 -3.466876e-02
0	 0	 -3.466876e-02
0	 0	 -3.466876e-02
3.187514e-11	 -7.486331e-12	 -3.466876e-02
2.825529e-11	 -1.892789e-11	 -3.466876e-02
0	 0	 -3.466876e-02
0	 0	 -3.466876e-02
-2.732421e-11	 -4.494290e-11	 -3.466876e-02
4.285861e-11	 -1.926113e-11	 -3.466876e-02
-4.062376e-11	 -4.496905e-11	 -3.466876e-02
4.456042e-11	 -1.890233e-11	 -3.466876e-02
0	 0	 -3.466876e-02
-4.294377e-11	 -4.462747e-11	 -3.466876e-02
0	 0	 -3.466876e-02
0	 0	 -3.466876e-02
0	 0	 -3.466876e-02
-2.811848e-11	 -4.483537e-11	 -3.466876e-02
-3.513524e-11	 -1.610416e-11	 -3.466876e-02
3.348982e-11	 -7.138446e-12	 -3.466876e-02
2.896006e-11	 -1.877941e-11	 -3.466876e-02
0	 0	 -3.466876e-02
-1.566287e-11	 5.736821e-12	 -3.466876e-02
-2.827674e-11	 2.085491e-12	 -3.466876e-02
-3.539994e-11	 -1.003499e-11	 -3.466876e-02
-3.681502e-11	 -2.821806e-11	 -3.466876e-02
-3.284414e-11	 -3.989217e-11	 -3.466876e-02
-2.493420e-11	 -3.574317e-11	 -3.466876e-02
-1.356597e-11	 -2.109008e-11	 -3.466876e-02
0	 0	 -3.466876e-02
0	 0	 -3.466876e-02
-3.795026e-11	 -2.825694e-11	 -3.466876e-02
0	 0	 -3.466876e-02
-2.574663e-11	 -3.582513e-11	 -3.466876e-02
-2.940536e-11	 2.151537e-12	 -3.466876e-02
-3.053613e-11	 2.186017e-12	 -3.466876e-02
-3.798090e-11	 -1.004100e-11	 -3.466876e-02
0	 0	 -3.466876e-02
-1.709366e-11	 5.774113e-12	 -3.466876e-02
-3.473952e-11	 -4.001127e-11	 -3.466876e-02
-1.452565e-11	 -2.115982e-11	 -3.466876e-02
0	 0	 -3.466876e-02
-3.909032e-11	 -2.830257e-11	 -3.466876e-02
-2.655357e-11	 -3.589192e-11	 -3.466876e-02
-4.022014e-11	 -2.834345e-11	 -3.466876e-02
-2.735764e-11	 -3.595103e-11	 -3.466876e-02
0	 0	 -3.466876e-02
-3.165539e-11	 2.219170e-12	 -3.466876e-02
0	 0	 -3.466876e-02
0	 0	 -3.466876e-02
-1.852451e-11	 5.747252e-12	 -3.466876e-02
-4.055307e-11	 -1.011046e-11	 -3.466876e-02
-4.135557e-11	 -2.839229e-11	 -3.466876e-02
-3.663479e-11	 -4.007771e-11	 -3.466876e-02
-2.816556e-11	 -3.599336e-11	 -3.466876e-02
-1.548258e-11	 -2.119846e-11	 -3.466876e-02
0	 0	 -3.466876e-02
-3.278048e-11	 2.211970e-12	 -3.466876e-02
3.322713e-11	 7.754325e-12	 -3.466876e-02
0	 0	 -3.466876e-02
1.772908e-11	 6.588279e-12	 -3.466876e-02
4.272661e-11	 4.724035e-12	 -3.466876e-02
4.494856e-11	 -1.763169e-12	 -3.466876e-02
3.982309e-11	 -8.272527e-12	 -3.466876e-02
2.923145e-11	 -1.006672e-11	 -3.466876e-02
1.534858e-11	 -7.763269e-12	 -3.466876e-02
0	 0	 -3.466876e-02
0	 0	 -3.466876e-02
3.188676e-11	 7.717149e-12	 -3.466876e-02
0	 0	 -3.466876e-02
4.335219e-11	 -1.797735e-12	 -3.466876e-02
2.835995e-11	 -1.007465e-11	 -3.466876e-02
4.176696e-11	 -1.797456e-12	 -3.466876e-02
2.749092e-11	 -1.004924e-11	 -3.466876e-02
0	 0	 -3.466876e-02
1.634021e-11	 6.568619e-12	 -3.466876e-02
3.713272e-11	 -8.310548e-12	 -3.466876e-02
1.445247e-11	 -7.779908e-12	 -3.466876e-02
0	 0	 -3.466876e-02
3.055252e-11	 7.695355e-12	 -3.466876e-02
3.943550e-11	 4.665278e-12	 -3.466876e-02
2.921255e-11	 7.672572e-12	 -3.466876e-02
2.661053e-11	 -1.001787e-11	 -3.466876e-02
0	 0	 -3.466876e-02
4.016168e-11	 -1.792687e-12	 -3.466876e-02
0	 0	 -3.466876e-02
0	 0	 -3.466876e-02
1.494838e-11	 6.549118e-12	 -3.466876e-02
2.786819e-11	 7.662044e-12	 -3.466876e-02
3.612777e-11	 4.655264e-12	 -3.466876e-02
3.856288e-11	 -1.758257e-12	 -3.466876e-02
3.442999e-11	 -8.258100e-12	 -3.466876e-02
2.573703e-11	 -9.957403e-12	 -3.466876e-02
1.354944e-11	 -7.740416e-12	 -3.466876e-02
0	 0	 -3.466876e-02
-3.239665e-11	 1.424640e-11	 -3.466876e-02
-2.930829e-11	 -2.452465e-11	 -3.466876e-02
3.483350e-11	 2.707506e-11	 -3.466876e-02
3.185819e-11	 6.288716e-12	 -3.466876e-02
0	 0	 -3.466876e-02
0	 0	 -3.466876e-02
0	 0	 -3.466876e-02
4.830492e-11	 2.419725e-11	 -3.466876e-02
0	 0	 -3.466876e-02
-4.187130e-11	 -1.443845e-11	 -3.466876e-02
4.412291e-11	 2.486593e-11	 -3.466876e-02
-4.011090e-11	 -1.407640e-11	 -3.466876e-02
2.885555e-11	 6.752435e-12	 -3.466876e-02
0	 0	 -3.466876e-02
0	 0	 -3.466876e-02
-3.141479e-11	 1.446944e-11	 -3.466876e-02
-2.755589e-11	 -2.417645e-11	 -3.466876e-02
0	 0	 -3.466876e-02
0	 0	 -3.466876e-02
3.211229e-11	 2.752861e-11	 -3.466876e-02
-2.581522e-11	 -2.381687e-11	 -3.466876e-02
2.588904e-11	 7.287946e-12	 -3.466876e-02
0	 0	 -3.466876e-02
-3.835354e-11	 -1.373254e-11	 -3.466876e-02
0	 0	 -3.466876e-02
0	 0	 -3.466876e-02
3.997907e-11	 2.557676e-11	 -3.466876e-02
0	 0	 -3.466876e-02
-3.041683e-11	 1.459875e-11	 -3.466876e-02
2.940376e-11	 2.795580e-11	 -3.466876e-02
-3.229382e-11	 1.754185e-11	 -3.466876e-02
-3.332486e-11	 -1.132428e-11	 -3.466876e-02
-1.790335e-11	 1.374928e-11	 -3.466876e-02
-4.479793e-11	 -2.348701e-12	 -3.466876e-02
2.067669e-11	 2.537969e-11	 -3.466876e-02
3.967156e-11	 4.565491e-11	 -3.466876e-02
4.008719e-11	 3.124011e-11	 -3.466876e-02
2.138708e-11	 1.549012e-11	 -3.466876e-02
-4.186713e-11	 1.147806e-11	 -3.466876e-02
-4.144689e-11	 -1.224578e-11	 -3.466876e-02
-1.857148e-11	 -6.171245e-12	 -3.466876e-02
0	 0	 -3.466876e-02
0	 0	 -3.466876e-02
5.820012e-11	 5.598939e-11	 -3.466876e-02
0	 0	 -3.466876e-02
5.325293e-11	 4.656440e-11	 -3.466876e-02
0	 0	 -3.466876e-02
5.340837e-11	 5.690587e-11	 -3.466876e-02
-3.224248e-11	 1.751527e-11	 -3.466876e-02
3.852309e-11	 4.606449e-11	 -3.466876e-02
0	 0	 -3.466876e-02
0	 0	 -3.466876e-02
-4.406608e-11	 -2.075407e-12	 -3.466876e-02
0	 0	 -3.466876e-02
0	 0	 -3.466876e-02
-3.246323e-11	 -1.097543e-11	 -3.466876e-02
3.827356e-11	 3.191868e-11	 -3.466876e-02
5.601443e-11	 5.679128e-11	 -3.466876e-02
1.928704e-11	 1.627512e-11	 -3.466876e-02
-3.218168e-11	 1.747820e-11	 -3.466876e-02
-3.945723e-11	 -1.149166e-11	 -3.466876e-02
3.736917e-11	 4.644393e-11	 -3.466876e-02
4.884240e-11	 4.819024e-11	 -3.466876e-02
4.993329e-11	 5.817444e-11	 -3.466876e-02
0	 0	 -3.466876e-02
-1.805009e-11	 1.366458e-11	 -3.466876e-02
-4.333509e-11	 -1.792242e-12	 -3.466876e-02
0	 0	 -3.466876e-02
5.383369e-11	 5.756259e-11	 -3.466876e-02
0	 0	 -3.466876e-02
1.964334e-11	 2.574754e-11	 -3.466876e-02
0	 0	 -3.466876e-02
-4.118169e-11	 1.169989e-11	 -3.466876e-02
-1.754737e-11	 -5.752584e-12	 -3.466876e-02
-3.160644e-11	 -1.062145e-11	 -3.466876e-02
3.647094e-11	 3.259424e-11	 -3.466876e-02
0	 0	 -3.466876e-02
-3.212231e-11	 1.743927e-11	 -3.466876e-02
-3.074267e-11	 -1.026542e-11	 -3.466876e-02
0	 0	 -3.466876e-02
0	 0	 -3.466876e-02
3.464927e-11	 3.326294e-11	 -3.466876e-02
0	 0	 -3.466876e-02
3.620265e-11	 4.681641e-11	 -3.466876e-02
-4.259997e-11	 -1.508221e-12	 -3.466876e-02
5.163193e-11	 5.832564e-11	 -3.466876e-02
-1.818171e-11	 1.354383e-11	 -3.466876e-02
1.858618e-11	 2.607777e-11	 -3.466876e-02
3.281416e-11	 3.393499e-11	 -3.466876e-02
1.716973e-11	 1.705435e-11	 -3.466876e-02
0	 0	 -3.466876e-02
-3.206547e-11	 1.738276e-11	 -3.466876e-02
-4.187846e-11	 -1.218944e-12	 -3.466876e-02
-3.747427e-11	 -1.069420e-11	 -3.466876e-02
-2.988722e-11	 -9.906761e-12	 -3.466876e-02
-1.652363e-11	 -5.330652e-12	 -3.466876e-02
0	 0	 -3.466876e-02
0	 0	 -3.466876e-02
3.502027e-11	 4.716543e-11	 -3.466876e-02