# vtk DataFile Version 3.0
Unstructured Grid Example
ASCII
DATASET UNSTRUCTURED_GRID
POINTS 832 float
-1	 0	 0
-1	 0	 3.750000e-01
-1	 0	 7.500000e-01
-1	 0	 1.125000e+00
-1	 0	 1.500000e+00
-1	 0	 1.875000e+00
-1	 0	 2.250000e+00
-1	 0	 2.625000e+00
-1	 0	 3
-9.875000e-01	 0	 0
-9.875000e-01	 0	 1.500000e+00
-9.875000e-01	 0	 3
-9.875000e-01	 0	 2.250000e+00
-9.875000e-01	 0	 7.500000e-01
-9.833054e-01	 -1.819631e-01	 7.500000e-01
-9.833054e-01	 -1.819631e-01	 0
-9.833054e-01	 -1.819631e-01	 1.500000e+00
-9.833054e-01	 -1.819631e-01	 3.000000e+00
-9.833054e-01	 1.819631e-01	 2.250000e+00
-9.833054e-01	 1.819631e-01	 0
-9.833054e-01	 1.819631e-01	 1.500000e+00
-9.833054e-01	 1.819631e-01	 3.000000e+00
-9.833054e-01	 1.819631e-01	 7.500000e-01
-9.833054e-01	 -1.819631e-01	 2.250000e+00
-9.750000e-01	 0	 7.500000e-01
-9.750000e-01	 0	 1.125000e+00
-9.750000e-01	 0	 0
-9.750000e-01	 0	 3.750000e-01
-9.750000e-01	 0	 1.875000e+00
-9.750000e-01	 0	 2.625000e+00
-9.750000e-01	 0	 3
-9.750000e-01	 0	 1.500000e+00
-9.750000e-01	 0	 2.250000e+00
-9.625000e-01	 0	 1.500000e+00
-9.625000e-01	 0	 2.250000e+00
-9.625000e-01	 0	 0
-9.625000e-01	 0	 7.500000e-01
-9.625000e-01	 0	 3
-9.587227e-01	 -1.774140e-01	 0
-9.587227e-01	 -1.774140e-01	 3.000000e+00
-9.587227e-01	 -1.774140e-01	 1.500000e+00
-9.587227e-01	 1.774140e-01	 0
-9.587227e-01	 1.774140e-01	 3.000000e+00
-9.587227e-01	 1.774140e-01	 1.500000e+00
-9.587227e-01	 1.774140e-01	 7.500000e-01
-9.587227e-01	 -1.774140e-01	 7.500000e-01
-9.587227e-01	 -1.774140e-01	 2.250000e+00
-9.587227e-01	 1.774140e-01	 2.250000e+00
-9.500000e-01	 0	 0
-9.500000e-01	 0	 3.750000e-01
-9.500000e-01	 0	 1.125000e+00
-9.500000e-01	 0	 1.500000e+00
-9.500000e-01	 0	 1.875000e+00
-9.500000e-01	 0	 2.250000e+00
-9.500000e-01	 0	 2.625000e+00
-9.500000e-01	 0	 3
-9.500000e-01	 0	 7.500000e-01
-9.341401e-01	 -1.728649e-01	 1.500000e+00
-9.341401e-01	 -1.728649e-01	 0
-9.341401e-01	 -1.728649e-01	 3.000000e+00
-9.341401e-01	 1.728649e-01	 2.250000e+00
-9.341401e-01	 1.728649e-01	 0
-9.341401e-01	 1.728649e-01	 1.500000e+00
-9.341401e-01	 1.728649e-01	 3.000000e+00
-9.341401e-01	 -1.728649e-01	 7.500000e-01
-9.341401e-01	 -1.728649e-01	 2.250000e+00
-9.341401e-01	 1.728649e-01	 7.500000e-01
-9.297883e-01	 -3.680947e-01	 1.125000e+00
-9.297883e-01	 -3.680947e-01	 0
-9.297883e-01	 -3.680947e-01	 7.500000e-01
-9.297883e-01	 -3.680947e-01	 1.500000e+00
-9.297883e-01	 -3.680947e-01	 1.875000e+00
-9.297883e-01	 -3.680947e-01	 2.250000e+00
-9.297883e-01	 -3.680947e-01	 2.625000e+00
-9.297883e-01	 -3.680947e-01	 3.000000e+00
-9.297883e-01	 -3.680947e-01	 3.750000e-01
-9.297883e-01	 3.680947e-01	 3.750000e-01
-9.297883e-01	 3.680947e-01	 2.250000e+00
-9.297883e-01	 3.680947e-01	 2.625000e+00
-9.297883e-01	 3.680947e-01	 0
-9.297883e-01	 3.680947e-01	 7.500000e-01
-9.297883e-01	 3.680947e-01	 1.500000e+00
-9.297883e-01	 3.680947e-01	 1.875000e+00
-9.297883e-01	 3.680947e-01	 3.000000e+00
-9.297883e-01	 3.680947e-01	 1.125000e+00
-9.181659e-01	 3.634935e-01	 7.500000e-01
-9.181659e-01	 -3.634935e-01	 0
-9.181659e-01	 -3.634935e-01	 7.500000e-01
-9.181659e-01	 -3.634935e-01	 2.250000e+00
-9.181659e-01	 -3.634935e-01	 3
-9.181659e-01	 3.634935e-01	 0
-9.181659e-01	 3.634935e-01	 2.250000e+00
-9.181659e-01	 3.634935e-01	 3
-9.181659e-01	 -3.634935e-01	 1.500000e+00
-9.181659e-01	 3.634935e-01	 1.500000e+00
-9.065436e-01	 -3.588923e-01	 1.125000e+00
-9.065436e-01	 -3.588923e-01	 2.625000e+00
-9.065436e-01	 -3.588923e-01	 0
-9.065436e-01	 -3.588923e-01	 3.750000e-01
-9.065436e-01	 -3.588923e-01	 1.500000e+00
-9.065436e-01	 -3.588923e-01	 3
-9.065436e-01	 3.588923e-01	 2.625000e+00
-9.065436e-01	 3.588923e-01	 1.125000e+00
-9.065436e-01	 3.588923e-01	 0
-9.065436e-01	 3.588923e-01	 3.750000e-01
-9.065436e-01	 3.588923e-01	 3
-9.065436e-01	 -3.588923e-01	 7.500000e-01
-9.065436e-01	 -3.588923e-01	 1.875000e+00
-9.065436e-01	 3.588923e-01	 1.875000e+00
-9.065436e-01	 3.588923e-01	 1.500000e+00
-9.065436e-01	 -3.588923e-01	 2.250000e+00
-9.065436e-01	 3.588923e-01	 7.500000e-01
-9.065436e-01	 3.588923e-01	 2.250000e+00
-8.949212e-01	 3.542912e-01	 1.500000e+00
-8.949212e-01	 -3.542912e-01	 1.500000e+00
-8.949212e-01	 -3.542912e-01	 0
-8.949212e-01	 -3.542912e-01	 3.000000e+00
-8.949212e-01	 3.542912e-01	 0
-8.949212e-01	 3.542912e-01	 3.000000e+00
-8.949212e-01	 -3.542912e-01	 2.250000e+00
-8.949212e-01	 -3.542912e-01	 7.500000e-01
-8.949212e-01	 3.542912e-01	 2.250000e+00
-8.949212e-01	 3.542912e-01	 7.500000e-01
-8.832989e-01	 -3.496900e-01	 1.125000e+00
-8.832989e-01	 -3.496900e-01	 1.875000e+00
-8.832989e-01	 -3.496900e-01	 2.625000e+00
-8.832989e-01	 -3.496900e-01	 2.250000e+00
-8.832989e-01	 3.496900e-01	 1.125000e+00
-8.832989e-01	 -3.496900e-01	 0
-8.832989e-01	 -3.496900e-01	 3.000000e+00
-8.832989e-01	 -3.496900e-01	 3.750000e-01
-8.832989e-01	 -3.496900e-01	 7.500000e-01
-8.832989e-01	 3.496900e-01	 3.750000e-01
-8.832989e-01	 3.496900e-01	 7.500000e-01
-8.832989e-01	 3.496900e-01	 2.250000e+00
-8.832989e-01	 3.496900e-01	 2.625000e+00
-8.832989e-01	 3.496900e-01	 0
-8.832989e-01	 3.496900e-01	 1.875000e+00
-8.832989e-01	 3.496900e-01	 3.000000e+00
-8.832989e-01	 -3.496900e-01	 1.500000e+00
-8.832989e-01	 3.496900e-01	 1.500000e+00
-8.369955e-01	 -5.472098e-01	 0
-8.369955e-01	 -5.472098e-01	 7.500000e-01
-8.369955e-01	 -5.472098e-01	 1.500000e+00
-8.369955e-01	 -5.472098e-01	 2.250000e+00
-8.369955e-01	 -5.472098e-01	 3
-8.369955e-01	 5.472098e-01	 0
-8.369955e-01	 5.472098e-01	 7.500000e-01
-8.369955e-01	 5.472098e-01	 1.500000e+00
-8.369955e-01	 5.472098e-01	 2.250000e+00
-8.369955e-01	 5.472098e-01	 3
-8.160706e-01	 -5.335295e-01	 7.500000e-01
-8.160706e-01	 5.335295e-01	 7.500000e-01
-8.160706e-01	 -5.335295e-01	 1.500000e+00
-8.160706e-01	 -5.335295e-01	 2.250000e+00
-8.160706e-01	 5.335295e-01	 1.500000e+00
-8.160706e-01	 5.335295e-01	 2.250000e+00
-8.160706e-01	 -5.335295e-01	 0
-8.160706e-01	 -5.335295e-01	 3.000000e+00
-8.160706e-01	 5.335295e-01	 0
-8.160706e-01	 5.335295e-01	 3.000000e+00
-7.951457e-01	 -5.198493e-01	 7.500000e-01
-7.951457e-01	 5.198493e-01	 7.500000e-01
-7.951457e-01	 -5.198493e-01	 0
-7.951457e-01	 -5.198493e-01	 1.500000e+00
-7.951457e-01	 -5.198493e-01	 2.250000e+00
-7.951457e-01	 -5.198493e-01	 3
-7.951457e-01	 5.198493e-01	 0
-7.951457e-01	 5.198493e-01	 1.500000e+00
-7.951457e-01	 5.198493e-01	 2.250000e+00
-7.951457e-01	 5.198493e-01	 3
-7.071068e-01	 -7.071068e-01	 0
-7.071068e-01	 -7.071068e-01	 3.750000e-01
-7.071068e-01	 -7.071068e-01	 7.500000e-01
-7.071068e-01	 -7.071068e-01	 1.125000e+00
-7.071068e-01	 -7.071068e-01	 1.500000e+00
-7.071068e-01	 -7.071068e-01	 1.875000e+00
-7.071068e-01	 -7.071068e-01	 2.250000e+00
-7.071068e-01	 -7.071068e-01	 2.625000e+00
-7.071068e-01	 -7.071068e-01	 3.000000e+00
-7.071068e-01	 7.071068e-01	 0
-7.071068e-01	 7.071068e-01	 3.750000e-01
-7.071068e-01	 7.071068e-01	 7.500000e-01
-7.071068e-01	 7.071068e-01	 1.125000e+00
-7.071068e-01	 7.071068e-01	 1.500000e+00
-7.071068e-01	 7.071068e-01	 1.875000e+00
-7.071068e-01	 7.071068e-01	 2.250000e+00
-7.071068e-01	 7.071068e-01	 2.625000e+00
-7.071068e-01	 7.071068e-01	 3.000000e+00
-6.982679e-01	 -6.982679e-01	 7.500000e-01
-6.982679e-01	 6.982679e-01	 7.500000e-01
-6.982679e-01	 -6.982679e-01	 0
-6.982679e-01	 -6.982679e-01	 2.250000e+00
-6.982679e-01	 -6.982679e-01	 3.000000e+00
-6.982679e-01	 6.982679e-01	 0
-6.982679e-01	 6.982679e-01	 2.250000e+00
-6.982679e-01	 6.982679e-01	 3.000000e+00
-6.982679e-01	 -6.982679e-01	 1.500000e+00
-6.982679e-01	 6.982679e-01	 1.500000e+00
-6.894291e-01	 -6.894291e-01	 3.750000e-01
-6.894291e-01	 -6.894291e-01	 2.625000e+00
-6.894291e-01	 -6.894291e-01	 0
-6.894291e-01	 -6.894291e-01	 1.500000e+00
-6.894291e-01	 -6.894291e-01	 2.250000e+00
-6.894291e-01	 -6.894291e-01	 3.000000e+00
-6.894291e-01	 6.894291e-01	 3.750000e-01
-6.894291e-01	 6.894291e-01	 2.625000e+00
-6.894291e-01	 -6.894291e-01	 1.875000e+00
-6.894291e-01	 6.894291e-01	 1.875000e+00
-6.894291e-01	 -6.894291e-01	 7.500000e-01
-6.894291e-01	 -6.894291e-01	 1.125000e+00
-6.894291e-01	 6.894291e-01	 0
-6.894291e-01	 6.894291e-01	 1.500000e+00
-6.894291e-01	 6.894291e-01	 2.250000e+00
-6.894291e-01	 6.894291e-01	 3.000000e+00
-6.894291e-01	 6.894291e-01	 7.500000e-01
-6.894291e-01	 6.894291e-01	 1.125000e+00
-6.805903e-01	 6.805903e-01	 7.500000e-01
-6.805903e-01	 -6.805903e-01	 7.500000e-01
-6.805903e-01	 -6.805903e-01	 0
-6.805903e-01	 -6.805903e-01	 1.500000e+00
-6.805903e-01	 -6.805903e-01	 3.000000e+00
-6.805903e-01	 6.805903e-01	 0
-6.805903e-01	 6.805903e-01	 1.500000e+00
-6.805903e-01	 6.805903e-01	 3.000000e+00
-6.805903e-01	 6.805903e-01	 2.250000e+00
-6.805903e-01	 -6.805903e-01	 2.250000e+00
-6.717514e-01	 -6.717514e-01	 2.625000e+00
-6.717514e-01	 6.717514e-01	 2.625000e+00
-6.717514e-01	 -6.717514e-01	 0
-6.717514e-01	 -6.717514e-01	 3.750000e-01
-6.717514e-01	 -6.717514e-01	 7.500000e-01
-6.717514e-01	 -6.717514e-01	 1.125000e+00
-6.717514e-01	 -6.717514e-01	 1.875000e+00
-6.717514e-01	 -6.717514e-01	 3.000000e+00
-6.717514e-01	 -6.717514e-01	 2.250000e+00
-6.717514e-01	 6.717514e-01	 1.500000e+00
-6.717514e-01	 6.717514e-01	 0
-6.717514e-01	 6.717514e-01	 3.750000e-01
-6.717514e-01	 6.717514e-01	 7.500000e-01
-6.717514e-01	 6.717514e-01	 1.125000e+00
-6.717514e-01	 6.717514e-01	 1.875000e+00
-6.717514e-01	 6.717514e-01	 3.000000e+00
-6.717514e-01	 -6.717514e-01	 1.500000e+00
-6.717514e-01	 6.717514e-01	 2.250000e+00
-5.472098e-01	 -8.369955e-01	 0
-5.472098e-01	 -8.369955e-01	 7.500000e-01
-5.472098e-01	 -8.369955e-01	 1.500000e+00
-5.472098e-01	 -8.369955e-01	 2.250000e+00
-5.472098e-01	 -8.369955e-01	 3
-5.472098e-01	 8.369955e-01	 0
-5.472098e-01	 8.369955e-01	 7.500000e-01
-5.472098e-01	 8.369955e-01	 1.500000e+00
-5.472098e-01	 8.369955e-01	 2.250000e+00
-5.472098e-01	 8.369955e-01	 3
-5.335295e-01	 -8.160706e-01	 1.500000e+00
-5.335295e-01	 -8.160706e-01	 2.250000e+00
-5.335295e-01	 8.160706e-01	 0
-5.335295e-01	 8.160706e-01	 3.000000e+00
[...]
POINT_DATA 832
VECTORS displacement float
0	 0	 -1.289334e-11
6.529244e-12	 2.092071e-02	 -1.314240e-11
9.666905e-12	 3.862570e-02	 -1.376211e-11
5.431109e-12	 5.050706e-02	 -1.457093e-11
-9.790020e-12	 5.462499e-02	 -1.428539e-11
-2.845783e-11	 5.050706e-02	 -1.151699e-11
-3.427755e-11	 3.862570e-02	 -7.665178e-12
-2.210654e-11	 2.092071e-02	 -4.995250e-12
0	 0	 -4.123918e-12
0	 0	 -1.313339e-11
-9.781420e-12	 5.394295e-02	 -1.359973e-11
0	 0	 -4.908821e-12
-3.439283e-11	 3.814342e-02	 -7.821240e-12
9.725104e-12	 3.814342e-02	 -1.377894e-11
-7.032557e-03	 3.801766e-02	 5.571708e-06
0	 0	 7.879591e-06
-9.945537e-03	 5.376508e-02	 -1.907430e-11
0	 0	 -7.879620e-06
7.032557e-03	 3.801766e-02	 5.571726e-06
0	 0	 -7.879616e-06
9.945537e-03	 5.376508e-02	 -8.310965e-12
0	 0	 7.879611e-06
7.032557e-03	 3.801766e-02	 -5.571735e-06
-7.032557e-03	 3.801766e-02	 -5.571741e-06
9.756679e-12	 3.766110e-02	 -1.379357e-11
5.489589e-12	 4.924299e-02	 -1.394645e-11
0	 0	 -1.337140e-11
6.582814e-12	 2.039711e-02	 -1.349217e-11
-2.856327e-11	 4.924299e-02	 -1.053662e-11
-2.220580e-11	 2.039711e-02	 -6.246302e-12
0	 0	 -5.689277e-12
-9.787142e-12	 5.326083e-02	 -1.291814e-11
-3.446641e-11	 3.766110e-02	 -7.976255e-12
-9.795679e-12	 5.257878e-02	 -1.223566e-11
-3.452520e-11	 3.717881e-02	 -8.132431e-12
0	 0	 -1.361157e-11
9.783917e-12	 3.717881e-02	 -1.380843e-11
0	 0	 -6.473718e-12
0	 0	 3.515432e-06
0	 0	 -3.515463e-06
-9.696375e-03	 5.241939e-02	 -1.832998e-11
0	 0	 -3.515458e-06
0	 0	 3.515452e-06
9.696375e-03	 5.241939e-02	 -6.673311e-12
6.856372e-03	 3.706610e-02	 -2.485808e-06
-6.856372e-03	 3.706610e-02	 2.485781e-06
-6.856372e-03	 3.706610e-02	 -2.485814e-06
6.856372e-03	 3.706610e-02	 2.485799e-06
0	 0	 -1.385449e-11
6.605743e-12	 1.987354e-02	 -1.384631e-11
5.475824e-12	 4.797896e-02	 -1.332020e-11
-9.819354e-12	 5.189669e-02	 -1.154576e-11
-2.860368e-11	 4.797896e-02	 -9.552897e-12
-3.453306e-11	 3.669650e-02	 -8.288328e-12
-2.223738e-11	 1.987354e-02	 -7.503536e-12
0	 0	 -7.264701e-12
9.778761e-12	 3.669650e-02	 -1.382516e-11
-9.447386e-03	 5.107364e-02	 -1.758427e-11
0	 0	 -7.057565e-07
0	 0	 7.057241e-07
6.680311e-03	 3.611452e-02	 -4.990342e-07
0	 0	 7.057296e-07
9.447386e-03	 5.107364e-02	 -5.032144e-12
0	 0	 -7.057387e-07
-6.680311e-03	 3.611452e-02	 -4.990515e-07
-6.680311e-03	 3.611452e-02	 4.990178e-07
6.680311e-03	 3.611452e-02	 4.990245e-07
-1.861587e-02	 4.695699e-02	 -3.437640e-06
0	 0	 -9.828672e-06
-1.424221e-02	 3.590819e-02	 -6.949924e-06
-2.014153e-02	 5.078185e-02	 -2.309315e-11
-1.861587e-02	 4.695699e-02	 3.437594e-06
-1.424221e-02	 3.590819e-02	 6.949879e-06
-7.710944e-03	 1.945022e-02	 8.299122e-06
0	 0	 9.828629e-06
-7.710944e-03	 1.945022e-02	 -8.299166e-06
7.710944e-03	 1.945022e-02	 8.299142e-06
1.424221e-02	 3.590819e-02	 -6.949894e-06
7.710944e-03	 1.945022e-02	 -8.299135e-06
0	 0	 9.828648e-06
1.424221e-02	 3.590819e-02	 6.949899e-06
2.014153e-02	 5.078185e-02	 -1.069907e-12
1.861587e-02	 4.695699e-02	 -3.437613e-06
0	 0	 -9.828640e-06
1.861587e-02	 4.695699e-02	 3.437614e-06
1.406397e-02	 3.545816e-02	 4.044314e-06
0	 0	 -5.719553e-06
-1.406397e-02	 3.545816e-02	 -4.044340e-06
-1.406397e-02	 3.545816e-02	 4.044295e-06
0	 0	 5.719510e-06
0	 0	 5.719529e-06
1.406397e-02	 3.545816e-02	 -4.044310e-06
0	 0	 -5.719522e-06
-1.988946e-02	 5.014541e-02	 -2.311841e-11
1.988946e-02	 5.014541e-02	 -3.409226e-13
-1.815075e-02	 4.578138e-02	 -8.059064e-07
-7.518288e-03	 1.896327e-02	 1.945554e-06
0	 0	 -1.624238e-06
-7.518288e-03	 1.896327e-02	 -1.945597e-06
-1.963737e-02	 4.950905e-02	 -2.313808e-11
0	 0	 1.624195e-06
7.518288e-03	 1.896327e-02	 -1.945567e-06
1.815075e-02	 4.578138e-02	 8.058813e-07
0	 0	 1.624214e-06
7.518288e-03	 1.896327e-02	 1.945573e-06
0	 0	 -1.624208e-06
-1.388572e-02	 3.500818e-02	 -1.148516e-06
-1.815075e-02	 4.578138e-02	 8.058603e-07
1.815075e-02	 4.578138e-02	 -8.058793e-07
1.963737e-02	 4.950905e-02	 3.886029e-13
-1.388572e-02	 3.500818e-02	 1.148471e-06
1.388572e-02	 3.500818e-02	 1.148491e-06
1.388572e-02	 3.500818e-02	 -1.148487e-06
1.938523e-02	 4.887268e-02	 1.118035e-12
-1.938523e-02	 4.887268e-02	 -2.315776e-11
0	 0	 2.379468e-06
0	 0	 -2.379511e-06
0	 0	 -2.379492e-06
0	 0	 2.379497e-06
-1.370743e-02	 3.455821e-02	 -1.682576e-06
-1.370743e-02	 3.455821e-02	 1.682531e-06
1.370743e-02	 3.455821e-02	 1.682560e-06
1.370743e-02	 3.455821e-02	 -1.682556e-06
-1.768541e-02	 4.460584e-02	 1.752701e-06
-1.768541e-02	 4.460584e-02	 -1.752747e-06
-7.325536e-03	 1.847634e-02	 -4.231473e-06
-1.352911e-02	 3.410824e-02	 -4.522876e-06
1.768541e-02	 4.460584e-02	 -1.752725e-06
0	 0	 6.396262e-06
0	 0	 -6.396305e-06
-7.325536e-03	 1.847634e-02	 4.231430e-06
-1.352911e-02	 3.410824e-02	 4.522832e-06
7.325536e-03	 1.847634e-02	 -4.231454e-06
1.352911e-02	 3.410824e-02	 -4.522857e-06
1.352911e-02	 3.410824e-02	 4.522860e-06
7.325536e-03	 1.847634e-02	 4.231459e-06
0	 0	 -6.396286e-06
1.768541e-02	 4.460584e-02	 1.752728e-06
0	 0	 6.396290e-06
-1.913305e-02	 4.823634e-02	 -2.318139e-11
1.913305e-02	 4.823634e-02	 1.850330e-12
0	 0	 1.832340e-06
-2.117653e-02	 3.235903e-02	 1.295655e-06
-2.994813e-02	 4.576258e-02	 -2.725314e-11
-2.117653e-02	 3.235903e-02	 -1.295710e-06
0	 0	 -1.832394e-06
0	 0	 -1.832360e-06
2.117653e-02	 3.235903e-02	 -1.295677e-06
2.994813e-02	 4.576258e-02	 6.386041e-12
2.117653e-02	 3.235903e-02	 1.295695e-06
0	 0	 1.832381e-06
-2.064816e-02	 3.155068e-02	 3.169064e-07
2.064816e-02	 3.155068e-02	 -3.169289e-07
-2.920091e-02	 4.461941e-02	 -2.784477e-11
-2.064816e-02	 3.155068e-02	 -3.169616e-07
2.920091e-02	 4.461941e-02	 7.452084e-12
2.064816e-02	 3.155068e-02	 3.169463e-07
0	 0	 4.481838e-07
0	 0	 -4.482383e-07
0	 0	 -4.482045e-07
0	 0	 4.482236e-07
-2.011969e-02	 3.074241e-02	 -6.111641e-07
2.011969e-02	 3.074241e-02	 6.111419e-07
0	 0	 -8.643028e-07
-2.845354e-02	 4.347634e-02	 -2.843762e-11
-2.011969e-02	 3.074241e-02	 6.111093e-07
0	 0	 8.642488e-07
0	 0	 8.642817e-07
2.845354e-02	 4.347634e-02	 8.523032e-12
2.011969e-02	 3.074241e-02	 -6.111245e-07
0	 0	 -8.642644e-07
0	 0	 -3.315096e-11
-1.479615e-02	 1.479615e-02	 -3.203486e-11
-2.731488e-02	 2.731488e-02	 -3.114572e-11
-3.572106e-02	 3.572106e-02	 -3.161618e-11
-3.862907e-02	 3.862907e-02	 -3.219194e-11
-3.572106e-02	 3.572106e-02	 -3.333749e-11
-2.731488e-02	 2.731488e-02	 -3.354349e-11
-1.479615e-02	 1.479615e-02	 -3.120185e-11
0	 0	 -2.956869e-11
0	 0	 1.761994e-11
1.479615e-02	 1.479615e-02	 1.576128e-11
2.731488e-02	 2.731488e-02	 1.302639e-11
3.572106e-02	 3.572106e-02	 1.193191e-11
3.862907e-02	 3.862907e-02	 1.273809e-11
3.572106e-02	 3.572106e-02	 1.541682e-11
2.731488e-02	 2.731488e-02	 1.692514e-11
1.479615e-02	 1.479615e-02	 1.665951e-11
0	 0	 1.659734e-11
-2.697469e-02	 2.697469e-02	 -3.170409e-11
2.697469e-02	 2.697469e-02	 1.345702e-11
0	 0	 -3.279070e-11
-2.697469e-02	 2.697469e-02	 -3.271976e-11
0	 0	 -2.996293e-11
0	 0	 1.680411e-11
2.697469e-02	 2.697469e-02	 1.656041e-11
0	 0	 1.630363e-11
-3.814797e-02	 3.814797e-02	 -3.243882e-11
3.814797e-02	 3.814797e-02	 1.322704e-11
-1.442742e-02	 1.442742e-02	 -3.229482e-11
-1.442742e-02	 1.442742e-02	 -3.079695e-11
0	 0	 -3.242800e-11
-3.766683e-02	 3.766683e-02	 -3.268504e-11
-2.663447e-02	 2.663447e-02	 -3.190121e-11
0	 0	 -3.035515e-11
1.442742e-02	 1.442742e-02	 1.526321e-11
1.442742e-02	 1.442742e-02	 1.617844e-11
-3.483087e-02	 3.483087e-02	 -3.266926e-11
3.483087e-02	 3.483087e-02	 1.509966e-11
-2.663447e-02	 2.663447e-02	 -3.225913e-11
-3.483087e-02	 3.483087e-02	 -3.242309e-11
0	 0	 1.599128e-11
3.766683e-02	 3.766683e-02	 1.371562e-11
2.663447e-02	 2.663447e-02	 1.620169e-11
0	 0	 1.600709e-11
2.663447e-02	 2.663447e-02	 1.388139e-11
3.483087e-02	 3.483087e-02	 1.322780e-11
2.629424e-02	 2.629424e-02	 1.430543e-11
-2.629424e-02	 2.629424e-02	 -3.281555e-11
0	 0	 -3.206486e-11
-3.718567e-02	 3.718567e-02	 -3.293250e-11
0	 0	 -3.074793e-11
0	 0	 1.517833e-11
3.718567e-02	 3.718567e-02	 1.420464e-11
0	 0	 1.570712e-11
2.629424e-02	 2.629424e-02	 1.584350e-11
-2.629424e-02	 2.629424e-02	 -3.108178e-11
-1.405869e-02	 1.405869e-02	 -3.039246e-11
1.405869e-02	 1.405869e-02	 1.569485e-11
0	 0	 -3.169961e-11
-1.405869e-02	 1.405869e-02	 -3.255551e-11
-2.595401e-02	 2.595401e-02	 -3.337748e-11
-3.394067e-02	 3.394067e-02	 -3.323393e-11
-3.394067e-02	 3.394067e-02	 -3.199833e-11
0	 0	 -3.114552e-11
-2.595401e-02	 2.595401e-02	 -3.025383e-11
3.670452e-02	 3.670452e-02	 1.469577e-11
0	 0	 1.435935e-11
1.405869e-02	 1.405869e-02	 1.476211e-11
2.595401e-02	 2.595401e-02	 1.473614e-11
3.394067e-02	 3.394067e-02	 1.452627e-11
3.394067e-02	 3.394067e-02	 1.478257e-11
0	 0	 1.540971e-11
-3.670452e-02	 3.670452e-02	 -3.318133e-11
2.595401e-02	 2.595401e-02	 1.547847e-11
0	 0	 -1.832405e-06
-3.235903e-02	 2.117653e-02	 -1.295717e-06
-4.576258e-02	 2.994813e-02	 -3.582408e-11
-3.235903e-02	 2.117653e-02	 1.295646e-06
0	 0	 1.832337e-06
0	 0	 1.832394e-06
3.235903e-02	 2.117653e-02	 1.295704e-06
4.576258e-02	 2.994813e-02	 1.875001e-11
3.235903e-02	 2.117653e-02	 -1.295663e-06
0	 0	 -1.832348e-06
-4.461941e-02	 2.920091e-02	 -3.620928e-11
-3.155068e-02	 2.064816e-02	 3.168997e-07
0	 0	 4.482356e-07
0	 0	 -4.481923e-07
4.461941e-02	 2.920091e-02	 1.945190e-11
3.155068e-02	 2.064816e-02	 -3.169153e-07
-3.155068e-02	 2.064816e-02	 -3.169702e-07
0	 0	 -4.482480e-07
0	 0	 4.481792e-07
3.155068e-02	 2.064816e-02	 3.169564e-07
3.074241e-02	 2.011969e-02	 -6.111132e-07
-3.074241e-02	 2.011969e-02	 6.110985e-07
0	 0	 8.642403e-07
-4.347634e-02	 2.845354e-02	 -3.660121e-11
-3.074241e-02	 2.011969e-02	 -6.111685e-07
0	 0	 -8.643094e-07
0	 0	 -8.642535e-07
4.347634e-02	 2.845354e-02	 2.015339e-11
3.074241e-02	 2.011969e-02	 6.111547e-07
0	 0	 8.642946e-07
-4.695699e-02	 1.861587e-02	 3.437580e-06
4.695699e-02	 1.861587e-02	 -3.437588e-06
0	 0	 9.828607e-06
-3.590819e-02	 1.424221e-02	 6.949864e-06
-5.078185e-02	 2.014153e-02	 -3.614546e-11
-4.695699e-02	 1.861587e-02	 -3.437653e-06
0	 0	 -9.828681e-06
0	 0	 -9.828617e-06
3.590819e-02	 1.424221e-02	 -6.949872e-06
5.078185e-02	 2.014153e-02	 2.463870e-11
4.695699e-02	 1.861587e-02	 3.437637e-06
3.590819e-02	 1.424221e-02	 6.949921e-06
1.945022e-02	 7.710944e-03	 8.299164e-06
0	 0	 9.828670e-06
-1.945022e-02	 7.710944e-03	 8.299103e-06
-3.590819e-02	 1.424221e-02	 -6.949938e-06
-1.945022e-02	 7.710944e-03	 -8.299177e-06
1.945022e-02	 7.710944e-03	 -8.299113e-06
-5.014541e-02	 1.988946e-02	 -3.663984e-11
5.014541e-02	 1.988946e-02	 2.464373e-11
-3.545816e-02	 1.406397e-02	 4.044279e-06
0	 0	 5.719489e-06
-3.545816e-02	 1.406397e-02	 -4.044353e-06
0	 0	 -5.719563e-06
0	 0	 -5.719500e-06
3.545816e-02	 1.406397e-02	 -4.044287e-06
3.545816e-02	 1.406397e-02	 4.044337e-06
0	 0	 5.719552e-06
-3.500818e-02	 1.388572e-02	 -1.148528e-06
3.500818e-02	 1.388572e-02	 1.148514e-06
4.578138e-02	 1.815075e-02	 -8.058558e-07
1.896327e-02	 7.518288e-03	 1.945596e-06
0	 0	 1.624176e-06
-1.896327e-02	 7.518288e-03	 1.945535e-06
0	 0	 -1.624249e-06
-4.950905e-02	 1.963737e-02	 -3.713679e-11
0	 0	 -1.624186e-06
1.896327e-02	 7.518288e-03	 -1.945545e-06
4.950905e-02	 1.963737e-02	 2.464709e-11
0	 0	 1.624238e-06
-4.578138e-02	 1.815075e-02	 8.058452e-07
-4.578138e-02	 1.815075e-02	 -8.059194e-07
-3.500818e-02	 1.388572e-02	 1.148454e-06
3.500818e-02	 1.388572e-02	 -1.148464e-06
4.578138e-02	 1.815075e-02	 8.059054e-07
-1.896327e-02	 7.518288e-03	 -1.945609e-06
-4.887268e-02	 1.938523e-02	 -3.763589e-11
-3.455821e-02	 1.370743e-02	 1.682519e-06
3.455821e-02	 1.370743e-02	 -1.682532e-06
0	 0	 2.379519e-06
0	 0	 -2.379469e-06
4.887268e-02	 1.938523e-02	 2.464989e-11
0	 0	 -2.379529e-06
0	 0	 2.379456e-06
-3.455821e-02	 1.370743e-02	 -1.682593e-06
3.455821e-02	 1.370743e-02	 1.682583e-06
-4.460584e-02	 1.768541e-02	 -1.752763e-06
0	 0	 -6.396322e-06
-4.460584e-02	 1.768541e-02	 1.752689e-06
0	 0	 6.396249e-06
-4.823634e-02	 1.913305e-02	 -3.813576e-11
0	 0	 6.396312e-06
0	 0	 -6.396262e-06
4.460584e-02	 1.768541e-02	 1.752751e-06
4.460584e-02	 1.768541e-02	 -1.752701e-06
1.847634e-02	 7.325536e-03	 -4.231431e-06
-1.847634e-02	 7.325536e-03	 -4.231491e-06
-3.410824e-02	 1.352911e-02	 -4.522894e-06
-3.410824e-02	 1.352911e-02	 4.522821e-06
-1.847634e-02	 7.325536e-03	 4.231418e-06
4.823634e-02	 1.913305e-02	 2.465375e-11
1.847634e-02	 7.325536e-03	 4.231481e-06
3.410824e-02	 1.352911e-02	 -4.522832e-06
3.410824e-02	 1.352911e-02	 4.522883e-06
-3.801766e-02	 7.032557e-03	 -5.571765e-06
3.801766e-02	 7.032557e-03	 5.571760e-06
0	 0	 -7.879651e-06
-5.376508e-02	 9.945537e-03	 -3.501212e-11
0	 0	 7.879573e-06
0	 0	 7.879641e-06
5.376508e-02	 9.945537e-03	 2.929690e-11
0	 0	 -7.879584e-06
-3.801766e-02	 7.032557e-03	 5.571690e-06
3.801766e-02	 7.032557e-03	 -5.571704e-06
-3.706610e-02	 6.856372e-03	 -2.485838e-06
0	 0	 -3.515491e-06
0	 0	 3.515415e-06
3.706610e-02	 6.856372e-03	 2.485832e-06
3.706610e-02	 6.856372e-03	 -2.485775e-06
0	 0	 3.515482e-06
0	 0	 -3.515425e-06
-3.706610e-02	 6.856372e-03	 2.485764e-06
5.241939e-02	 9.696375e-03	 2.865888e-11
-5.241939e-02	 9.696375e-03	 -3.657805e-11
5.107364e-02	 9.447386e-03	 2.801664e-11
0	 0	 7.057001e-07
-5.107364e-02	 9.447386e-03	 -3.815084e-11
0	 0	 -7.057736e-07
0	 0	 -7.057072e-07
0	 0	 7.057636e-07
-3.611452e-02	 6.680311e-03	 -4.990682e-07
-3.611452e-02	 6.680311e-03	 4.989942e-07
3.611452e-02	 6.680311e-03	 -4.990012e-07
3.611452e-02	 6.680311e-03	 4.990593e-07
0	 0	 -3.763459e-11
-2.092071e-02	 -1.440239e-11	 -3.810347e-11
-3.862570e-02	 -2.940195e-11	 -3.776076e-11
-5.050706e-02	 -2.862544e-11	 -3.558296e-11
-5.462499e-02	 -7.868123e-12	 -3.375135e-11
-5.050706e-02	 1.363043e-11	 -3.381127e-11
-3.862570e-02	 2.415523e-11	 -3.497988e-11
-2.092071e-02	 2.147736e-11	 -3.708330e-11
0	 0	 -3.858118e-11
0	 0	 -3.731614e-11
-5.394295e-02	 -7.902844e-12	 -3.460047e-11
0	 0	 -3.762151e-11
-3.814342e-02	 2.425791e-11	 -3.518149e-11
-3.814342e-02	 -2.953921e-11	 -3.734783e-11
-3.766110e-02	 -2.960941e-11	 -3.693711e-11
-4.924299e-02	 -2.876491e-11	 -3.646296e-11
0	 0	 -3.700622e-11
-2.039711e-02	 -1.443509e-11	 -3.697931e-11
-4.924299e-02	 1.369913e-11	 -3.492444e-11
-2.039711e-02	 2.159577e-11	 -3.621403e-11
0	 0	 -3.666670e-11
-5.326083e-02	 -7.918929e-12	 -3.544144e-11
-3.766110e-02	 2.432901e-11	 -3.538161e-11
-5.257878e-02	 -7.938771e-12	 -3.628548e-11
-3.717881e-02	 2.440013e-11	 -3.558332e-11
0	 0	 -3.669481e-11
-3.717881e-02	 -2.967047e-11	 -3.652606e-11
0	 0	 -3.570909e-11
0	 0	 -3.637596e-11
-1.987354e-02	 -1.439555e-11	 -3.585255e-11
-4.797896e-02	 -2.875612e-11	 -3.734649e-11
-5.189669e-02	 -7.934530e-12	 -3.714127e-11
-4.797896e-02	 1.373445e-11	 -3.604325e-11
-3.669650e-02	 2.443641e-11	 -3.578640e-11
-1.987354e-02	 2.164263e-11	 -3.534217e-11
0	 0	 -3.474241e-11
-3.669650e-02	 -2.964922e-11	 -3.611089e-11
3.669650e-02	 5.205853e-12	 3.255653e-11
0	 0	 3.232761e-11
1.987354e-02	 7.873333e-12	 3.266139e-11
4.797896e-02	 -1.446630e-11	 3.113823e-11
5.189669e-02	 -3.832581e-11	 3.014532e-11
4.797896e-02	 -4.324300e-11	 3.053972e-11
3.669650e-02	 -2.429075e-11	 3.009340e-11
1.987354e-02	 -5.893454e-12	 2.885751e-11
0	 0	 2.842473e-11
0	 0	 3.203040e-11
3.717881e-02	 5.155076e-12	 3.291105e-11
0	 0	 2.840156e-11
5.257878e-02	 -3.833676e-11	 3.080470e-11
3.717881e-02	 -2.430782e-11	 2.924655e-11
5.326083e-02	 -3.827300e-11	 3.145424e-11
3.766110e-02	 -2.429153e-11	 2.840868e-11
0	 0	 3.173737e-11
2.039711e-02	 7.903919e-12	 3.235302e-11
4.924299e-02	 -4.327021e-11	 2.989879e-11
2.039711e-02	 -5.838031e-12	 2.808609e-11
0	 0	 2.837319e-11
3.766110e-02	 5.083139e-12	 3.325889e-11
4.924299e-02	 -1.453868e-11	 3.285861e-11
3.814342e-02	 5.014352e-12	 3.360877e-11
3.814342e-02	 -2.427119e-11	 2.757208e-11
0	 0	 3.144388e-11
5.394295e-02	 -3.819417e-11	 3.210379e-11
0	 0	 2.834859e-11
0	 0	 3.114308e-11
2.092071e-02	 7.884473e-12	 3.204574e-11
3.862570e-02	 4.926004e-12	 3.396184e-11
5.050706e-02	 -1.455085e-11	 3.457168e-11
5.462499e-02	 -3.805119e-11	 3.275566e-11
5.050706e-02	 -4.312218e-11	 2.925693e-11
3.862570e-02	 -2.422645e-11	 2.672527e-11
2.092071e-02	 -5.800827e-12	 2.731650e-11
0	 0	 2.832434e-11
-3.611452e-02	 -6.680311e-03	 -4.990653e-07
-3.611452e-02	 -6.680311e-03	 4.989979e-07
3.611452e-02	 -6.680311e-03	 4.990653e-07
3.611452e-02	 -6.680311e-03	 -4.990004e-07
0	 0	 -7.057714e-07
0	 0	 7.057051e-07
0	 0	 7.057707e-07
5.107364e-02	 -9.447386e-03	 3.123788e-11
0	 0	 -7.057075e-07
-5.107364e-02	 -9.447386e-03	 -3.490519e-11
5.241939e-02	 -9.696375e-03	 3.292959e-11
-5.241939e-02	 -9.696375e-03	 -3.354042e-11
3.706610e-02	 -6.856372e-03	 2.485831e-06
0	 0	 3.515418e-06
0	 0	 -3.515487e-06
-3.706610e-02	 -6.856372e-03	 2.485766e-06
-3.706610e-02	 -6.856372e-03	 -2.485833e-06
0	 0	 -3.515419e-06
0	 0	 3.515481e-06
3.706610e-02	 -6.856372e-03	 -2.485767e-06
-3.801766e-02	 -7.032557e-03	 -5.571759e-06
3.801766e-02	 -7.032557e-03	 5.571758e-06
0	 0	 7.879578e-06
-5.376508e-02	 -9.945537e-03	 -3.218049e-11
0	 0	 -7.879648e-06
0	 0	 -7.879579e-06
5.376508e-02	 -9.945537e-03	 3.461449e-11
0	 0	 7.879639e-06
-3.801766e-02	 -7.032557e-03	 5.571691e-06
3.801766e-02	 -7.032557e-03	 -5.571694e-06
-3.410824e-02	 -1.352911e-02	 4.522827e-06
-3.410824e-02	 -1.352911e-02	 -4.522887e-06
-1.847634e-02	 -7.325536e-03	 4.231424e-06
-4.823634e-02	 -1.913305e-02	 -3.161173e-11
1.847634e-02	 -7.325536e-03	 -4.231420e-06
3.410824e-02	 -1.352911e-02	 -4.522823e-06
3.410824e-02	 -1.352911e-02	 4.522888e-06
1.847634e-02	 -7.325536e-03	 4.231484e-06
-4.460584e-02	 -1.768541e-02	 1.752694e-06
-4.460584e-02	 -1.768541e-02	 -1.752756e-06
-1.847634e-02	 -7.325536e-03	 -4.231484e-06
0	 0	 6.396255e-06
0	 0	 -6.396314e-06
4.823634e-02	 -1.913305e-02	 3.092002e-11
0	 0	 -6.396251e-06
4.460584e-02	 -1.768541e-02	 1.752757e-06
0	 0	 6.396315e-06
4.460584e-02	 -1.768541e-02	 -1.752693e-06
-3.455821e-02	 -1.370743e-02	 1.682525e-06
3.455821e-02	 -1.370743e-02	 -1.682523e-06
0	 0	 -2.379459e-06
0	 0	 2.379522e-06
-4.887268e-02	 -1.938523e-02	 -3.141744e-11
0	 0	 2.379464e-06
0	 0	 -2.379522e-06
-3.455821e-02	 -1.370743e-02	 -1.682585e-06
3.455821e-02	 -1.370743e-02	 1.682587e-06
4.887268e-02	 -1.938523e-02	 3.168832e-11
1.896327e-02	 -7.518288e-03	 -1.945543e-06
-3.500818e-02	 -1.388572e-02	 -1.148523e-06
-4.578138e-02	 -1.815075e-02	 8.058525e-07
3.500818e-02	 -1.388572e-02	 1.148524e-06
4.578138e-02	 -1.815075e-02	 -8.058496e-07
4.578138e-02	 -1.815075e-02	 8.059143e-07
0	 0	 -1.624241e-06
-1.896327e-02	 -7.518288e-03	 -1.945602e-06
-4.950905e-02	 -1.963737e-02	 -3.122243e-11
0	 0	 1.624182e-06
4.950905e-02	 -1.963737e-02	 3.245075e-11
0	 0	 1.624247e-06
1.896327e-02	 -7.518288e-03	 1.945606e-06
0	 0	 -1.624184e-06
-4.578138e-02	 -1.815075e-02	 -8.059142e-07
-1.896327e-02	 -7.518288e-03	 1.945542e-06
-3.500818e-02	 -1.388572e-02	 1.148462e-06
3.500818e-02	 -1.388572e-02	 -1.148460e-06
0	 0	 -5.719554e-06
-3.545816e-02	 -1.406397e-02	 -4.044347e-06
-3.545816e-02	 -1.406397e-02	 4.044287e-06
0	 0	 5.719495e-06
0	 0	 5.719561e-06
3.545816e-02	 -1.406397e-02	 -4.044283e-06
0	 0	 -5.719499e-06
3.545816e-02	 -1.406397e-02	 4.044347e-06
-5.014541e-02	 -1.988946e-02	 -3.102972e-11
5.014541e-02	 -1.988946e-02	 3.321038e-11
-1.945022e-02	 -7.710944e-03	 -8.299169e-06
1.945022e-02	 -7.710944e-03	 8.299173e-06
3.590819e-02	 -1.424221e-02	 -6.949868e-06
1.945022e-02	 -7.710944e-03	 -8.299111e-06
0	 0	 -9.828671e-06
-3.590819e-02	 -1.424221e-02	 -6.949933e-06
-5.078185e-02	 -2.014153e-02	 -3.083889e-11
-4.695699e-02	 -1.861587e-02	 3.437587e-06
-3.590819e-02	 -1.424221e-02	 6.949872e-06
-1.945022e-02	 -7.710944e-03	 8.299110e-06
0	 0	 9.828611e-06
0	 0	 9.828679e-06
3.590819e-02	 -1.424221e-02	 6.949931e-06
5.078185e-02	 -2.014153e-02	 3.397252e-11
4.695699e-02	 -1.861587e-02	 -3.437582e-06
0	 0	 -9.828618e-06
-4.695699e-02	 -1.861587e-02	 -3.437649e-06
4.695699e-02	 -1.861587e-02	 3.437648e-06
0	 0	 -8.642993e-07
-4.347634e-02	 -2.845354e-02	 -2.694083e-11
-3.074241e-02	 -2.011969e-02	 6.111093e-07
0	 0	 8.642513e-07
0	 0	 8.643084e-07
4.347634e-02	 -2.845354e-02	 2.936905e-11
3.074241e-02	 -2.011969e-02	 -6.111049e-07
0	 0	 -8.642461e-07