# vtk DataFile Version 3.0
Unstructured Grid Example
ASCII
DATASET UNSTRUCTURED_GRID
POINTS 832 float
-1	 0	 0
-1	 0	 3.750000e-01
-1	 0	 7.500000e-01
-1	 0	 1.125000e+00
-1	 0	 1.500000e+00
-1	 0	 1.875000e+00
-1	 0	 2.250000e+00
-1	 0	 2.625000e+00
-1	 0	 3
-9.875000e-01	 0	 0
-9.875000e-01	 0	 1.500000e+00
-9.875000e-01	 0	 3
-9.875000e-01	 0	 2.250000e+00
-9.875000e-01	 0	 7.500000e-01
-9.833054e-01	 -1.819631e-01	 7.500000e-01
-9.833054e-01	 -1.819631e-01	 0
-9.833054e-01	 -1.819631e-01	 1.500000e+00
-9.833054e-01	 -1.819631e-01	 3.000000e+00
-9.833054e-01	 1.819631e-01	 2.250000e+00
-9.833054e-01	 1.819631e-01	 0
-9.833054e-01	 1.819631e-01	 1.500000e+00
-9.833054e-01	 1.819631e-01	 3.000000e+00
-9.833054e-01	 1.819631e-01	 7.500000e-01
-9.833054e-01	 -1.819631e-01	 2.250000e+00
-9.750000e-01	 0	 7.500000e-01
-9.750000e-01	 0	 1.125000e+00
-9.750000e-01	 0	 0
-9.750000e-01	 0	 3.750000e-01
-9.750000e-01	 0	 1.875000e+00
-9.750000e-01	 0	 2.625000e+00
-9.750000e-01	 0	 3
-9.750000e-01	 0	 1.500000e+00
-9.750000e-01	 0	 2.250000e+00
-9.625000e-01	 0	 1.500000e+00
-9.625000e-01	 0	 2.250000e+00
-9.625000e-01	 0	 0
-9.625000e-01	 0	 7.500000e-01
-9.625000e-01	 0	 3
-9.587227e-01	 -1.774140e-01	 0
-9.587227e-01	 -1.774140e-01	 3.000000e+00
-9.587227e-01	 -1.774140e-01	 1.500000e+00
-9.587227e-01	 1.774140e-01	 0
-9.587227e-01	 1.774140e-01	 3.000000e+00
-9.587227e-01	 1.774140e-01	 1.500000e+00
-9.587227e-01	 1.774140e-01	 7.500000e-01
-9.587227e-01	 -1.774140e-01	 7.500000e-01
-9.587227e-01	 -1.774140e-01	 2.250000e+00
-9.587227e-01	 1.774140e-01	 2.250000e+00
-9.500000e-01	 0	 0
-9.500000e-01	 0	 3.750000e-01
-9.500000e-01	 0	 1.125000e+00
-9.500000e-01	 0	 1.500000e+00
-9.500000e-01	 0	 1.875000e+00
-9.500000e-01	 0	 2.250000e+00
-9.500000e-01	 0	 2.625000e+00
-9.500000e-01	 0	 3
-9.500000e-01	 0	 7.500000e-01
-9.341401e-01	 -1.728649e-01	 1.500000e+00
-9.341401e-01	 -1.728649e-01	 0
-9.341401e-01	 -1.728649e-01	 3.000000e+00
-9.341401e-01	 1.728649e-01	 2.250000e+00
-9.341401e-01	 1.728649e-01	 0
-9.341401e-01	 1.728649e-01	 1.500000e+00
-9.341401e-01	 1.728649e-01	 3.000000e+00
-9.341401e-01	 -1.728649e-01	 7.500000e-01
-9.341401e-01	 -1.728649e-01	 2.250000e+00
-9.341401e-01	 1.728649e-01	 7.500000e-01
-9.297883e-01	 -3.680947e-01	 1.125000e+00
-9.297883e-01	 -3.680947e-01	 0
-9.297883e-01	 -3.680947e-01	 7.500000e-01
-9.297883e-01	 -3.680947e-01	 1.500000e+00
-9.297883e-01	 -3.680947e-01	 1.875000e+00
-9.297883e-01	 -3.680947e-01	 2.250000e+00
-9.297883e-01	 -3.680947e-01	 2.625000e+00
-9.297883e-01	 -3.680947e-01	 3.000000e+00
-9.297883e-01	 -3.680947e-01	 3.750000e-01
-9.297883e-01	 3.680947e-01	 3.750000e-01
-9.297883e-01	 3.680947e-01	 2.250000e+00
-9.297883e-01	 3.680947e-01	 2.625000e+00
-9.297883e-01	 3.680947e-01	 0
-9.297883e-01	 3.680947e-01	 7.500000e-01
-9.297883e-01	 3.680947e-01	 1.500000e+00
-9.297883e-01	 3.680947e-01	 1.875000e+00
-9.297883e-01	 3.680947e-01	 3.000000e+00
-9.297883e-01	 3.680947e-01	 1.125000e+00
-9.181659e-01	 3.634935e-01	 7.500000e-01
-9.181659e-01	 -3.634935e-01	 0
-9.181659e-01	 -3.634935e-01	 7.500000e-01
-9.181659e-01	 -3.634935e-01	 2.250000e+00
-9.181659e-01	 -3.634935e-01	 3
-9.181659e-01	 3.634935e-01	 0
-9.181659e-01	 3.634935e-01	 2.250000e+00
-9.181659e-01	 3.634935e-01	 3
-9.181659e-01	 -3.634935e-01	 1.500000e+00
-9.181659e-01	 3.634935e-01	 1.500000e+00
-9.065436e-01	 -3.588923e-01	 1.125000e+00
-9.065436e-01	 -3.588923e-01	 2.625000e+00
-9.065436e-01	 -3.588923e-01	 0
-9.065436e-01	 -3.588923e-01	 3.750000e-01
-9.065436e-01	 -3.588923e-01	 1.500000e+00
-9.065436e-01	 -3.588923e-01	 3
-9.065436e-01	 3.588923e-01	 2.625000e+00
-9.065436e-01	 3.588923e-01	 1.125000e+00
-9.065436e-01	 3.588923e-01	 0
-9.065436e-01	 3.588923e-01	 3.750000e-01
-9.065436e-01	 3.588923e-01	 3
-9.065436e-01	 -3.588923e-01	 7.500000e-01
-9.065436e-01	 -3.588923e-01	 1.875000e+00
-9.065436e-01	 3.588923e-01	 1.875000e+00
-9.065436e-01	 3.588923e-01	 1.500000e+00
-9.065436e-01	 -3.588923e-01	 2.250000e+00
-9.065436e-01	 3.588923e-01	 7.500000e-01
-9.065436e-01	 3.588923e-01	 2.250000e+00
-8.949212e-01	 3.542912e-01	 1.500000e+00
-8.949212e-01	 -3.542912e-01	 1.500000e+00
-8.949212e-01	 -3.542912e-01	 0
-8.949212e-01	 -3.542912e-01	 3.000000e+00
-8.949212e-01	 3.542912e-01	 0
-8.949212e-01	 3.542912e-01	 3.000000e+00
-8.949212e-01	 -3.542912e-01	 2.250000e+00
-8.949212e-01	 -3.542912e-01	 7.500000e-01
-8.949212e-01	 3.542912e-01	 2.250000e+00
-8.949212e-01	 3.542912e-01	 7.500000e-01
-8.832989e-01	 -3.496900e-01	 1.125000e+00
-8.832989e-01	 -3.496900e-01	 1.875000e+00
-8.832989e-01	 -3.496900e-01	 2.625000e+00
-8.832989e-01	 -3.496900e-01	 2.250000e+00
-8.832989e-01	 3.496900e-01	 1.125000e+00
-8.832989e-01	 -3.496900e-01	 0
-8.832989e-01	 -3.496900e-01	 3.000000e+00
-8.832989e-01	 -3.496900e-01	 3.750000e-01
-8.832989e-01	 -3.496900e-01	 7.500000e-01
-8.832989e-01	 3.496900e-01	 3.750000e-01
-8.832989e-01	 3.496900e-01	 7.500000e-01
-8.832989e-01	 3.496900e-01	 2.250000e+00
-8.832989e-01	 3.496900e-01	 2.625000e+00
-8.832989e-01	 3.496900e-01	 0
-8.832989e-01	 3.496900e-01	 1.875000e+00
-8.832989e-01	 3.496900e-01	 3.000000e+00
-8.832989e-01	 -3.496900e-01	 1.500000e+00
-8.832989e-01	 3.496900e-01	 1.500000e+00
-8.369955e-01	 -5.472098e-01	 0
-8.369955e-01	 -5.472098e-01	 7.500000e-01
-8.369955e-01	 -5.472098e-01	 1.500000e+00
-8.369955e-01	 -5.472098e-01	 2.250000e+00
-8.369955e-01	 -5.472098e-01	 3
-8.369955e-01	 5.472098e-01	 0
-8.369955e-01	 5.472098e-01	 7.500000e-01
-8.369955e-01	 5.472098e-01	 1.500000e+00
-8.369955e-01	 5.472098e-01	 2.250000e+00
-8.369955e-01	 5.472098e-01	 3
-8.160706e-01	 -5.335295e-01	 7.500000e-01
-8.160706e-01	 5.335295e-01	 7.500000e-01
-8.160706e-01	 -5.335295e-01	 1.500000e+00
-8.160706e-01	 -5.335295e-01	 2.250000e+00
-8.160706e-01	 5.335295e-01	 1.500000e+00
-8.160706e-01	 5.335295e-01	 2.250000e+00
-8.160706e-01	 -5.335295e-01	 0
-8.160706e-01	 -5.335295e-01	 3.000000e+00
-8.160706e-01	 5.335295e-01	 0
-8.160706e-01	 5.335295e-01	 3.000000e+00
-7.951457e-01	 -5.198493e-01	 7.500000e-01
-7.951457e-01	 5.198493e-01	 7.500000e-01
-7.951457e-01	 -5.198493e-01	 0
-7.951457e-01	 -5.198493e-01	 1.500000e+00
-7.951457e-01	 -5.198493e-01	 2.250000e+00
-7.951457e-01	 -5.198493e-01	 3
-7.951457e-01	 5.198493e-01	 0
-7.951457e-01	 5.198493e-01	 1.500000e+00
-7.951457e-01	 5.198493e-01	 2.250000e+00
-7.951457e-01	 5.198493e-01	 3
-7.071068e-01	 -7.071068e-01	 0
-7.071068e-01	 -7.071068e-01	 3.750000e-01
-7.071068e-01	 -7.071068e-01	 7.500000e-01
-7.071068e-01	 -7.071068e-01	 1.125000e+00
-7.071068e-01	 -7.071068e-01	 1.500000e+00
-7.071068e-01	 -7.071068e-01	 1.875000e+00
-7.071068e-01	 -7.071068e-01	 2.250000e+00
-7.071068e-01	 -7.071068e-01	 2.625000e+00
-7.071068e-01	 -7.071068e-01	 3.000000e+00
-7.071068e-01	 7.071068e-01	 0
-7.071068e-01	 7.071068e-01	 3.750000e-01
-7.071068e-01	 7.071068e-01	 7.500000e-01
-7.071068e-01	 7.071068e-01	 1.125000e+00
-7.071068e-01	 7.071068e-01	 1.500000e+00
-7.071068e-01	 7.071068e-01	 1.875000e+00
-7.071068e-01	 7.071068e-01	 2.250000e+00
-7.071068e-01	 7.071068e-01	 2.625000e+00
-7.071068e-01	 7.071068e-01	 3.000000e+00
-6.982679e-01	 -6.982679e-01	 7.500000e-01
-6.982679e-01	 6.982679e-01	 7.500000e-01
-6.982679e-01	 -6.982679e-01	 0
-6.982679e-01	 -6.982679e-01	 2.250000e+00
-6.982679e-01	 -6.982679e-01	 3.000000e+00
-6.982679e-01	 6.982679e-01	 0
-6.982679e-01	 6.982679e-01	 2.250000e+00
-6.982679e-01	 6.982679e-01	 3.000000e+00
-6.982679e-01	 -6.982679e-01	 1.500000e+00
-6.982679e-01	 6.982679e-01	 1.500000e+00
-6.894291e-01	 -6.894291e-01	 3.750000e-01
-6.894291e-01	 -6.894291e-01	 2.625000e+00
-6.894291e-01	 -6.894291e-01	 0
-6.894291e-01	 -6.894291e-01	 1.500000e+00
-6.894291e-01	 -6.894291e-01	 2.250000e+00
-6.894291e-01	 -6.894291e-01	 3.000000e+00
-6.894291e-01	 6.894291e-01	 3.750000e-01
-6.894291e-01	 6.894291e-01	 2.625000e+00
-6.894291e-01	 -6.894291e-01	 1.875000e+00
-6.894291e-01	 6.894291e-01	 1.875000e+00
-6.894291e-01	 -6.894291e-01	 7.500000e-01
-6.894291e-01	 -6.894291e-01	 1.125000e+00
-6.894291e-01	 6.894291e-01	 0
-6.894291e-01	 6.894291e-01	 1.500000e+00
-6.894291e-01	 6.894291e-01	 2.250000e+00
-6.894291e-01	 6.894291e-01	 3.000000e+00
-6.894291e-01	 6.894291e-01	 7.500000e-01
-6.894291e-01	 6.894291e-01	 1.125000e+00
-6.805903e-01	 6.805903e-01	 7.500000e-01
-6.805903e-01	 -6.805903e-01	 7.500000e-01
-6.805903e-01	 -6.805903e-01	 0
-6.805903e-01	 -6.805903e-01	 1.500000e+00
-6.805903e-01	 -6.805903e-01	 3.000000e+00
-6.805903e-01	 6.805903e-01	 0
-6.805903e-01	 6.805903e-01	 1.500000e+00
-6.805903e-01	 6.805903e-01	 3.000000e+00
-6.805903e-01	 6.805903e-01	 2.250000e+00
-6.805903e-01	 -6.805903e-01	 2.250000e+00
-6.717514e-01	 -6.717514e-01	 2.625000e+00
-6.717514e-01	 6.717514e-01	 2.625000e+00
-6.717514e-01	 -6.717514e-01	 0
-6.717514e-01	 -6.717514e-01	 3.750000e-01
-6.717514e-01	 -6.717514e-01	 7.500000e-01
-6.717514e-01	 -6.717514e-01	 1.125000e+00
-6.717514e-01	 -6.717514e-01	 1.875000e+00
-6.717514e-01	 -6.717514e-01	 3.000000e+00
-6.717514e-01	 -6.717514e-01	 2.250000e+00
-6.717514e-01	 6.717514e-01	 1.500000e+00
-6.717514e-01	 6.717514e-01	 0
-6.717514e-01	 6.717514e-01	 3.750000e-01
-6.717514e-01	 6.717514e-01	 7.500000e-01
-6.717514e-01	 6.717514e-01	 1.125000e+00
-6.717514e-01	 6.717514e-01	 1.875000e+00
-6.717514e-01	 6.717514e-01	 3.000000e+00
-6.717514e-01	 -6.717514e-01	 1.500000e+00
-6.717514e-01	 6.717514e-01	 2.250000e+00
-5.472098e-01	 -8.369955e-01	 0
-5.472098e-01	 -8.369955e-01	 7.500000e-01
-5.472098e-01	 -8.369955e-01	 1.500000e+00
-5.472098e-01	 -8.369955e-01	 2.250000e+00
-5.472098e-01	 -8.369955e-01	 3
-5.472098e-01	 8.369955e-01	 0
-5.472098e-01	 8.369955e-01	 7.500000e-01
-5.472098e-01	 8.369955e-01	 1.500000e+00
-5.472098e-01	 8.369955e-01	 2.250000e+00
-5.472098e-01	 8.369955e-01	 3
-5.335295e-01	 -8.160706e-01	 1.500000e+00
-5.335295e-01	 -8.160706e-01	 2.250000e+00
-5.335295e-01	 8.160706e-01	 0
-5.335295e-01	 8.160706e-01	 3.000000e+00
[...]
POINT_DATA 832
VECTORS displacement float
0	 0	 -8.071888e-03
-3.749998e-02	 -8.995686e-03	 -5.289601e-03
-4.985510e-02	 -1.300827e-02	 9.288846e-11
-3.749998e-02	 -8.995686e-03	 5.289601e-03
5.102812e-10	 3.182408e-10	 8.071888e-03
3.749999e-02	 8.995687e-03	 5.289601e-03
4.985510e-02	 1.300827e-02	 -8.977245e-11
3.749998e-02	 8.995687e-03	 -5.289601e-03
0	 0	 -8.071888e-03
0	 0	 -6.514249e-03
5.112608e-10	 3.347163e-10	 6.514249e-03
0	 0	 -6.514250e-03
5.005348e-02	 1.488916e-02	 -8.493728e-11
-5.005348e-02	 -1.488916e-02	 8.811335e-11
-6.857486e-02	 -1.678162e-02	 1.130681e-10
0	 0	 -1.136787e-02
6.829623e-10	 3.519669e-10	 1.136787e-02
0	 0	 -1.136787e-02
2.019969e-02	 1.401213e-02	 -6.536630e-11
0	 0	 -2.851235e-03
3.047339e-10	 3.401176e-10	 2.851235e-03
0	 0	 -2.851235e-03
-2.019969e-02	 -1.401213e-02	 6.827965e-11
6.857486e-02	 1.678162e-02	 -1.097774e-10
-5.019208e-02	 -1.676010e-02	 8.333537e-11
-3.765462e-02	 -1.174469e-02	 3.531864e-03
0	 0	 -4.965084e-03
-3.765462e-02	 -1.174469e-02	 -3.531864e-03
3.765462e-02	 1.174469e-02	 3.531864e-03
3.765462e-02	 1.174469e-02	 -3.531864e-03
0	 0	 -4.965084e-03
5.121291e-10	 3.510387e-10	 4.965084e-03
5.019208e-02	 1.676010e-02	 -8.010018e-11
5.129593e-10	 3.672395e-10	 3.412937e-03
5.032102e-02	 1.860975e-02	 -7.525514e-11
0	 0	 -3.412937e-03
-5.032102e-02	 -1.860975e-02	 7.854991e-11
0	 0	 -3.412937e-03
0	 0	 -7.126330e-03
0	 0	 -7.126331e-03
6.824332e-10	 3.663049e-10	 7.126331e-03
0	 0	 -1.827412e-03
0	 0	 -1.827412e-03
3.100050e-10	 3.621031e-10	 1.827412e-03
-2.109150e-02	 -1.856585e-02	 6.359593e-11
-6.858749e-02	 -1.767261e-02	 9.933847e-11
6.858749e-02	 1.767261e-02	 -9.594560e-11
2.109150e-02	 1.856585e-02	 -6.067309e-11
0	 0	 -1.848589e-03
-3.767417e-02	 -1.448177e-02	 -1.767210e-03
-3.767417e-02	 -1.448177e-02	 1.767210e-03
5.136598e-10	 3.836084e-10	 1.848589e-03
3.767417e-02	 1.448177e-02	 1.767210e-03
5.038242e-02	 2.048018e-02	 -7.039863e-11
3.767417e-02	 1.448177e-02	 -1.767210e-03
0	 0	 -1.848589e-03
-5.038242e-02	 -2.048018e-02	 7.375205e-11
6.804680e-10	 3.805058e-10	 2.880658e-03
0	 0	 -2.880658e-03
0	 0	 -2.880658e-03
2.194466e-02	 2.318132e-02	 -5.595466e-11
0	 0	 -8.045336e-04
3.160850e-10	 3.841541e-10	 8.045337e-04
0	 0	 -8.045338e-04
-6.835799e-02	 -1.852643e-02	 8.558952e-11
6.835799e-02	 1.852643e-02	 -8.209245e-11
-2.194466e-02	 -2.318132e-02	 5.888842e-11
-4.628135e-02	 -1.354773e-02	 6.788776e-03
0	 0	 -1.045375e-02
-6.151339e-02	 -1.732327e-02	 1.208722e-10
7.046000e-10	 3.815169e-10	 1.045375e-02
4.628136e-02	 1.354773e-02	 6.788776e-03
6.151339e-02	 1.732327e-02	 -1.176911e-10
4.628135e-02	 1.354773e-02	 -6.788776e-03
0	 0	 -1.045375e-02
-4.628135e-02	 -1.354773e-02	 -6.788776e-03
1.187401e-02	 -1.786135e-02	 2.459644e-03
-1.518575e-02	 2.500417e-02	 -4.257028e-11
-1.187401e-02	 1.786135e-02	 2.459644e-03
0	 0	 3.754161e-03
1.518575e-02	 -2.500417e-02	 4.533131e-11
1.904924e-10	 3.826683e-10	 -3.754161e-03
-1.187401e-02	 1.786135e-02	 -2.459644e-03
0	 0	 3.754161e-03
1.187401e-02	 -1.786135e-02	 -2.459644e-03
1.437743e-02	 -2.732297e-02	 4.471454e-11
0	 0	 -8.445885e-03
-6.209246e-02	 -1.652962e-02	 1.133751e-10
6.209246e-02	 1.652962e-02	 -1.101516e-10
0	 0	 -8.445885e-03
0	 0	 3.021243e-03
-1.437743e-02	 2.732297e-02	 -4.200397e-11
0	 0	 3.021243e-03
7.073534e-10	 3.791884e-10	 8.445885e-03
1.919031e-10	 3.867301e-10	 -3.021243e-03
-4.697965e-02	 -1.230154e-02	 4.553861e-03
4.697965e-02	 1.230154e-02	 -4.553861e-03
0	 0	 -6.447388e-03
-4.697965e-02	 -1.230154e-02	 -4.553861e-03
7.097335e-10	 3.767599e-10	 6.447388e-03
0	 0	 -6.447388e-03
-1.064903e-02	 2.116701e-02	 1.640128e-03
1.064903e-02	 -2.116701e-02	 -1.640128e-03
0	 0	 2.292678e-03
1.064903e-02	 -2.116701e-02	 1.640128e-03
0	 0	 2.292678e-03
-6.260542e-02	 -1.571568e-02	 1.058912e-10
4.697965e-02	 1.230154e-02	 4.553861e-03
-1.064903e-02	 2.116701e-02	 -1.640128e-03
1.936226e-10	 3.906500e-10	 -2.292678e-03
6.260542e-02	 1.571568e-02	 -1.026252e-10
1.354447e-02	 -2.962255e-02	 4.407591e-11
-1.354447e-02	 2.962255e-02	 -4.141428e-11
1.953925e-10	 3.945466e-10	 -1.564254e-03
7.120161e-10	 3.743375e-10	 4.445816e-03
0	 0	 -4.445815e-03
0	 0	 -4.445816e-03
0	 0	 1.564254e-03
0	 0	 1.564254e-03
6.311039e-02	 1.491327e-02	 -9.508607e-11
-6.311039e-02	 -1.491327e-02	 9.839618e-11
-1.272140e-02	 3.189473e-02	 -4.082531e-11
1.272140e-02	 -3.189473e-02	 4.343801e-11
-4.753190e-02	 -1.100663e-02	 2.309744e-03
4.753190e-02	 1.100663e-02	 2.309744e-03
4.753190e-02	 1.100663e-02	 -2.309744e-03
6.354721e-02	 1.407062e-02	 -8.751581e-11
9.369530e-03	 -2.443540e-02	 -8.191996e-04
0	 0	 -2.429307e-03
0	 0	 -2.429307e-03
-4.753190e-02	 -1.100663e-02	 -2.309744e-03
-6.354721e-02	 -1.407062e-02	 9.086963e-11
9.369530e-03	 -2.443540e-02	 8.191997e-04
1.185746e-02	 -3.417724e-02	 4.281157e-11
-1.185746e-02	 3.417725e-02	 -4.024945e-11
-9.369530e-03	 2.443540e-02	 8.191996e-04
0	 0	 8.298264e-04
-9.369530e-03	 2.443540e-02	 -8.191997e-04
0	 0	 8.298263e-04
7.138853e-10	 3.717090e-10	 2.429307e-03
1.975603e-10	 3.983105e-10	 -8.298263e-04
0	 0	 -6.601914e-03
-4.167236e-02	 -9.757656e-03	 1.163620e-10
5.968358e-10	 3.457300e-10	 6.601914e-03
4.167236e-02	 9.757656e-03	 -1.133014e-10
0	 0	 -6.601914e-03
0	 0	 9.432321e-03
4.289985e-02	 -4.063557e-02	 2.727287e-11
2.135970e-10	 3.872330e-10	 -9.432321e-03
-4.289985e-02	 4.063557e-02	 -2.469066e-11
0	 0	 9.432321e-03
-4.380875e-02	 -6.668068e-03	 1.031402e-10
4.158453e-02	 -4.288939e-02	 2.708607e-11
6.099855e-10	 3.294453e-10	 4.181685e-03
4.380875e-02	 6.668069e-03	 -1.000133e-10
2.070055e-10	 3.762279e-10	 -5.945957e-03
-4.158453e-02	 4.288939e-02	 -2.476481e-11
0	 0	 -4.181685e-03
0	 0	 -4.181685e-03
0	 0	 5.945957e-03
0	 0	 5.945957e-03
-4.586131e-02	 -3.472112e-03	 8.989451e-11
4.009090e-02	 -4.506034e-02	 2.687525e-11
0	 0	 -1.759802e-03
6.224977e-10	 3.125302e-10	 1.759802e-03
4.586132e-02	 3.472112e-03	 -8.669925e-11
0	 0	 -1.759802e-03
0	 0	 2.455479e-03
2.013563e-10	 3.645051e-10	 -2.455479e-03
-4.009090e-02	 4.506034e-02	 -2.481625e-11
0	 0	 2.455479e-03
0	 0	 1.187458e-04
-8.711814e-03	 9.484468e-03	 7.745982e-05
-1.265586e-02	 1.367923e-02	 9.979706e-11
-8.711813e-03	 9.484468e-03	 -7.745964e-05
4.217726e-10	 2.179966e-10	 -1.187456e-04
8.711814e-03	 -9.484468e-03	 -7.745974e-05
1.265586e-02	 -1.367923e-02	 -9.694113e-11
8.711814e-03	 -9.484468e-03	 7.745957e-05
0	 0	 1.187455e-04
0	 0	 1.113217e-02
3.612033e-02	 -3.631442e-02	 7.261690e-03
4.782918e-02	 -4.811009e-02	 1.730922e-11
3.612033e-02	 -3.631442e-02	 -7.261690e-03
3.616967e-10	 2.803560e-10	 -1.113217e-02
-3.612033e-02	 3.631442e-02	 -7.261690e-03
-4.782918e-02	 4.811009e-02	 -1.493451e-11
-3.612033e-02	 3.631442e-02	 7.261690e-03
0	 0	 1.113217e-02
-1.445241e-02	 1.547989e-02	 9.528400e-11
4.800211e-02	 -4.832139e-02	 1.639172e-11
0	 0	 9.602526e-05
1.445241e-02	 -1.547988e-02	 -9.240635e-11
0	 0	 9.602499e-05
0	 0	 9.002162e-03
-4.800211e-02	 4.832139e-02	 -1.422979e-11
0	 0	 9.002162e-03
4.330726e-10	 2.078534e-10	 -9.602512e-05
3.510596e-10	 2.695556e-10	 -9.002162e-03
-1.129988e-02	 1.207565e-02	 5.192625e-05
1.129988e-02	 -1.207565e-02	 5.192602e-05
0	 0	 7.340920e-05
4.443146e-10	 1.978296e-10	 -7.340907e-05
1.624320e-02	 -1.727367e-02	 -8.786106e-11
0	 0	 7.340895e-05
3.623898e-02	 -3.648832e-02	 4.867970e-03
-3.623898e-02	 3.648832e-02	 4.867970e-03
1.129988e-02	 -1.207565e-02	 -5.192618e-05
-3.623898e-02	 3.648832e-02	 -4.867970e-03
-1.624320e-02	 1.727367e-02	 9.076244e-11
-1.129988e-02	 1.207565e-02	 -5.192608e-05
0	 0	 6.881953e-03
3.405528e-10	 2.588493e-10	 -6.881953e-03
-4.812351e-02	 4.848103e-02	 -1.352409e-11
0	 0	 6.881953e-03
4.812351e-02	 -4.848103e-02	 1.547489e-11
3.623898e-02	 -3.648832e-02	 -4.867970e-03
4.824127e-02	 -4.863657e-02	 1.455855e-11
-1.801262e-02	 1.904601e-02	 8.623577e-11
0	 0	 5.077062e-05
4.554742e-10	 1.878919e-10	 -5.077049e-05
0	 0	 5.077038e-05
0	 0	 4.759632e-03
3.301422e-10	 2.482358e-10	 -4.759632e-03
0	 0	 4.759632e-03
-4.824127e-02	 4.863657e-02	 -1.281825e-11
1.801262e-02	 -1.904601e-02	 -8.331056e-11
1.387888e-02	 -1.465532e-02	 2.629795e-05
-3.624278e-02	 3.654716e-02	 2.465390e-03
0	 0	 2.796328e-05
-1.387888e-02	 1.465532e-02	 2.629816e-05
-1.980009e-02	 2.083515e-02	 8.170082e-11
-1.387888e-02	 1.465532e-02	 -2.629801e-05
1.387888e-02	 -1.465532e-02	 -2.629810e-05
0	 0	 2.796305e-05
1.980009e-02	 -2.083515e-02	 -7.875275e-11
3.196757e-10	 2.375181e-10	 -2.621490e-03
0	 0	 2.621490e-03
3.624278e-02	 -3.654716e-02	 2.465390e-03
4.830040e-02	 -4.873385e-02	 1.363626e-11
3.624278e-02	 -3.654716e-02	 -2.465390e-03
-3.624278e-02	 3.654716e-02	 -2.465390e-03
0	 0	 2.621490e-03
4.667637e-10	 1.779161e-10	 -2.796316e-05
-4.830040e-02	 4.873385e-02	 -1.210955e-11
0	 0	 6.804666e-03
1.062689e-02	 4.259717e-02	 8.091509e-11
3.136408e-10	 7.305355e-11	 -6.804666e-03
-1.062689e-02	 -4.259717e-02	 -7.838017e-11
0	 0	 6.804666e-03
0	 0	 9.575327e-03
4.085301e-02	 -4.379874e-02	 7.289464e-12
4.820738e-10	 1.163642e-10	 -9.575327e-03
-4.085301e-02	 4.379874e-02	 -5.591007e-12
0	 0	 9.575327e-03
3.251207e-10	 6.732597e-11	 -4.309501e-03
-7.584683e-03	 -4.470598e-02	 -7.332382e-11
0	 0	 6.036532e-03
0	 0	 6.036532e-03
4.674069e-10	 1.065557e-10	 -6.036532e-03
-4.304142e-02	 4.252870e-02	 -2.472413e-12
7.584684e-03	 4.470598e-02	 7.592541e-11
0	 0	 4.309501e-03
0	 0	 4.309501e-03
4.304142e-02	 -4.252870e-02	 3.817426e-12
4.514467e-02	 -4.107853e-02	 3.493646e-13
4.434320e-03	 4.672714e-02	 7.089862e-11
0	 0	 1.812593e-03
3.373147e-10	 6.244309e-11	 -1.812593e-03
-4.434319e-03	 -4.672714e-02	 -6.822856e-11
0	 0	 1.812593e-03
0	 0	 2.493585e-03
4.521170e-10	 9.748061e-11	 -2.493585e-03
-4.514467e-02	 4.107853e-02	 6.393378e-13
0	 0	 2.493585e-03
1.393190e-02	 4.654523e-02	 -6.842801e-03
1.815447e-02	 -1.286418e-02	 -2.605050e-03
0	 0	 1.053623e-02
1.786071e-02	 6.185140e-02	 6.886234e-11
3.135889e-10	 4.794066e-11	 -1.053623e-02
-1.393190e-02	 -4.654523e-02	 -6.842801e-03
0	 0	 1.053623e-02
0	 0	 3.978059e-03
2.537948e-02	 -1.650167e-02	 -1.044590e-11
5.041300e-10	 4.193409e-11	 -3.978059e-03
-1.815447e-02	 1.286418e-02	 -2.605050e-03
-2.537947e-02	 1.650167e-02	 1.138610e-11
-1.815447e-02	 1.286418e-02	 2.605050e-03
0	 0	 3.978059e-03
1.393190e-02	 4.654523e-02	 6.842801e-03
-1.786071e-02	 -6.185140e-02	 -6.650920e-11
-1.393190e-02	 -4.654523e-02	 6.842801e-03
1.815447e-02	 -1.286418e-02	 2.605050e-03
3.102749e-10	 4.935861e-11	 -8.512269e-03
5.039578e-10	 4.129201e-11	 -3.202134e-03
1.711635e-02	 6.241335e-02	 6.712669e-11
0	 0	 8.512269e-03
-1.711635e-02	 -6.241335e-02	 -6.472866e-11
0	 0	 8.512269e-03
0	 0	 3.202134e-03
2.768187e-02	 -1.570553e-02	 -1.180408e-11
-2.768187e-02	 1.570553e-02	 1.260010e-11
0	 0	 3.202134e-03
-1.635129e-02	 -6.290866e-02	 -6.292778e-11
-2.996461e-02	 1.488332e-02	 1.379671e-11
2.143430e-02	 -1.165382e-02	 -1.737664e-03
-2.143430e-02	 1.165382e-02	 1.737664e-03
0	 0	 6.497773e-03
1.275596e-02	 4.721755e-02	 4.589892e-03
0	 0	 6.497772e-03
3.071221e-10	 5.101046e-11	 -6.497773e-03
0	 0	 2.430762e-03
2.143430e-02	 -1.165382e-02	 1.737664e-03
5.036793e-10	 4.098036e-11	 -2.430762e-03
0	 0	 2.430762e-03
1.275596e-02	 4.721755e-02	 -4.589891e-03
-1.275596e-02	 -4.721755e-02	 -4.589892e-03
1.635129e-02	 6.290866e-02	 6.537107e-11
2.996461e-02	 -1.488332e-02	 -1.314180e-11
-2.143430e-02	 1.165382e-02	 -1.737664e-03
-1.275596e-02	 -4.721755e-02	 4.589891e-03
3.039915e-10	 5.271329e-11	 -4.480203e-03
-1.559718e-02	 -6.339618e-02	 -6.112536e-11
-3.222018e-02	 1.407083e-02	 1.499685e-11
0	 0	 1.659467e-03
0	 0	 1.659467e-03
5.034191e-10	 4.072852e-11	 -1.659467e-03
0	 0	 4.480203e-03
0	 0	 4.480203e-03
1.559718e-02	 6.339618e-02	 6.361486e-11
3.222018e-02	 -1.407083e-02	 -1.448307e-11
1.153050e-02	 4.774263e-02	 -2.327748e-03
0	 0	 2.447565e-03
-1.153050e-02	 -4.774263e-02	 -2.327748e-03
0	 0	 2.447565e-03
3.009789e-10	 5.473365e-11	 -2.447565e-03
0	 0	 8.818474e-04
0	 0	 8.818474e-04
2.467580e-02	 -1.038581e-02	 -8.686673e-04
-2.467580e-02	 1.038581e-02	 -8.686673e-04
-2.467580e-02	 1.038581e-02	 8.686673e-04
1.153050e-02	 4.774263e-02	 2.327748e-03
1.480304e-02	 6.381466e-02	 6.186485e-11
-1.480304e-02	 -6.381466e-02	 -5.932929e-11
-1.153050e-02	 -4.774263e-02	 2.327748e-03
5.029911e-10	 4.086550e-11	 -8.818474e-04
2.467580e-02	 -1.038581e-02	 8.686673e-04
-3.448524e-02	 1.321602e-02	 1.621167e-11
3.448524e-02	 -1.321602e-02	 -1.584211e-11
1.708441e-02	 6.815948e-02	 6.169278e-11
1.437337e-02	 1.874116e-02	 -3.443013e-11
0	 0	 1.130962e-02
3.465395e-10	 1.419225e-10	 -1.130962e-02
0	 0	 1.130962e-02
0	 0	 -2.609336e-03
4.708992e-10	 9.974138e-11	 2.609336e-03
0	 0	 -2.609336e-03
-1.708441e-02	 -6.815948e-02	 -5.970023e-11
-1.437337e-02	 -1.874116e-02	 3.459680e-11
1.807275e-02	 6.815309e-02	 5.752158e-11
0	 0	 7.088962e-03
0	 0	 7.088962e-03
1.894714e-02	 1.963290e-02	 -3.380941e-11
-1.894714e-02	 -1.963290e-02	 3.382025e-11
0	 0	 -1.675779e-03
0	 0	 -1.675779e-03
-1.807275e-02	 -6.815309e-02	 -5.539364e-11
4.882539e-10	 1.034604e-10	 1.675779e-03
3.287567e-10	 1.464033e-10	 -7.088962e-03
5.055790e-10	 1.083340e-10	 7.432545e-04
0	 0	 2.864148e-03
3.109614e-10	 1.514865e-10	 -2.864148e-03
0	 0	 2.864148e-03
0	 0	 -7.432545e-04
0	 0	 -7.432544e-04
-1.902525e-02	 -6.790533e-02	 -5.106101e-11
1.902525e-02	 6.790533e-02	 5.332713e-11
2.358188e-02	 2.049115e-02	 -3.317103e-11
-2.358188e-02	 -2.049115e-02	 3.302539e-11
0	 0	 7.901502e-03
9.189668e-03	 3.670841e-02	 5.177945e-03
1.328878e-02	 4.880273e-02	 5.734739e-11
9.189668e-03	 3.670841e-02	 -5.177945e-03
3.635357e-10	 3.083743e-10	 -7.901502e-03
-9.189668e-03	 -3.670841e-02	 -5.177945e-03
-1.328878e-02	 -4.880273e-02	 -5.599028e-11
-9.189668e-03	 -3.670841e-02	 5.177945e-03
0	 0	 7.901502e-03
0	 0	 6.376743e-03
3.502347e-10	 3.090014e-10	 -6.376743e-03
0	 0	 6.376742e-03
-1.521022e-02	 -4.899692e-02	 -5.295354e-11
1.521022e-02	 4.899692e-02	 5.440292e-11
1.712152e-02	 4.913259e-02	 5.145780e-11
1.199795e-02	 3.685978e-02	 -3.457311e-03
0	 0	 4.860278e-03
1.199795e-02	 3.685978e-02	 3.457312e-03
-1.199795e-02	 -3.685978e-02	 -3.457311e-03
-1.199795e-02	 -3.685978e-02	 3.457311e-03
0	 0	 4.860278e-03
3.370308e-10	 3.095598e-10	 -4.860278e-03
-1.712152e-02	 -4.913259e-02	 -4.991545e-11
3.239785e-10	 3.100935e-10	 -3.340895e-03
-1.901105e-02	 -4.925882e-02	 -4.687218e-11
0	 0	 3.340895e-03
1.901105e-02	 4.925882e-02	 4.850823e-11
0	 0	 3.340895e-03
0	 0	 1.809568e-03
1.479405e-02	 3.687892e-02	 1.729906e-03
1.479405e-02	 3.687892e-02	 -1.729906e-03
3.108044e-10	 3.105471e-10	 -1.809568e-03
-1.479405e-02	 -3.687892e-02	 -1.729906e-03
-2.092181e-02	 -4.931892e-02	 -4.381955e-11
-1.479405e-02	 -3.687892e-02	 1.729906e-03
0	 0	 1.809568e-03
2.092181e-02	 4.931892e-02	 4.554969e-11
2.092181e-02	 4.931892e-02	 -5.074167e-11
0	 0	 -1.809568e-03
1.479405e-02	 3.687892e-02	 -1.729906e-03
1.479405e-02	 3.687892e-02	 1.729906e-03
5.107801e-10	 2.922978e-10	 1.809568e-03
-1.479405e-02	 -3.687892e-02	 1.729906e-03
-2.092181e-02	 -4.931892e-02	 5.045159e-11
-1.479405e-02	 -3.687892e-02	 -1.729906e-03
0	 0	 -1.809568e-03
0	 0	 -3.340895e-03
1.901105e-02	 4.925882e-02	 -5.372869e-11
0	 0	 -3.340895e-03
4.937875e-10	 2.917553e-10	 3.340895e-03
-1.901105e-02	 -4.925882e-02	 5.345415e-11
4.769749e-10	 2.912370e-10	 4.860278e-03
-1.712152e-02	 -4.913259e-02	 5.644965e-11
0	 0	 -4.860278e-03
1.199795e-02	 3.685978e-02	 -3.457312e-03
-1.199795e-02	 -3.685978e-02	 3.457311e-03
-1.199795e-02	 -3.685978e-02	 -3.457311e-03
0	 0	 -4.860278e-03
1.712152e-02	 4.913259e-02	 -5.670908e-11
1.199795e-02	 3.685978e-02	 3.457311e-03
1.521022e-02	 4.899692e-02	 -5.968743e-11
-1.521022e-02	 -4.899692e-02	 5.944283e-11
0	 0	 -6.376743e-03
4.600252e-10	 2.907140e-10	 6.376743e-03
0	 0	 -6.376742e-03
0	 0	 -7.901502e-03
9.189668e-03	 3.670841e-02	 -5.177945e-03
1.328878e-02	 4.880273e-02	 -6.266211e-11
9.189668e-03	 3.670841e-02	 5.177945e-03
4.429357e-10	 2.902060e-10	 7.901502e-03
-9.189667e-03	 -3.670841e-02	 5.177945e-03
-1.328878e-02	 -4.880273e-02	 6.243293e-11
-9.189668e-03	 -3.670841e-02	 -5.177945e-03
0	 0	 -7.901502e-03
2.358188e-02	 2.049115e-02	 3.635307e-11
-2.358188e-02	 -2.049115e-02	 -3.514058e-11
1.902525e-02	 6.790533e-02	 -6.691007e-11
-1.902525e-02	 -6.790533e-02	 6.650063e-11
0	 0	 7.432545e-04
0	 0	 7.432544e-04
0	 0	 -2.864148e-03
5.143583e-10	 4.890788e-10	 2.864148e-03
0	 0	 -2.864148e-03
3.107644e-10	 4.525911e-10	 -7.432545e-04
4.932408e-10	 4.925044e-10	 7.088962e-03
3.244046e-10	 4.551117e-10	 -1.675779e-03
-1.807275e-02	 -6.815309e-02	 7.756637e-11
0	 0	 1.675779e-03
0	 0	 1.675779e-03
1.894714e-02	 1.963290e-02	 4.357639e-11
-1.894714e-02	 -1.963290e-02	 -4.255214e-11
0	 0	 -7.088962e-03
0	 0	 -7.088962e-03
1.807275e-02	 6.815309e-02	 -7.802404e-11
-1.437337e-02	 -1.874116e-02	 -4.995596e-11
-1.708441e-02	 -6.815948e-02	 8.861572e-11
0	 0	 2.609336e-03
3.381505e-10	 4.566738e-10	 -2.609336e-03
0	 0	 2.609336e-03
0	 0	 -1.130962e-02
4.721234e-10	 4.948246e-10	 1.130962e-02
0	 0	 -1.130962e-02
1.437337e-02	 1.874116e-02	 5.079507e-11
1.708441e-02	 6.815948e-02	 -8.912009e-11
3.448524e-02	 -1.321602e-02	 2.250058e-11
-3.448524e-02	 1.321602e-02	 -2.154783e-11
2.467580e-02	 -1.038581e-02	 -8.686672e-04
3.107447e-10	 5.036290e-10	 8.818474e-04
1.153050e-02	 4.774263e-02	 -2.327748e-03
1.480304e-02	 6.381466e-02	 -7.869198e-11
-1.480304e-02	 -6.381466e-02	 7.806118e-11
-1.153050e-02	 -4.774263e-02	 -2.327748e-03
2.467580e-02	 -1.038581e-02	 8.686673e-04
-2.467580e-02	 1.038581e-02	 8.686673e-04
-2.467580e-02	 1.038581e-02	 -8.686673e-04
0	 0	 -8.818474e-04
0	 0	 -8.818475e-04
5.270889e-10	 5.876972e-10	 2.447565e-03
0	 0	 -2.447565e-03
-1.153050e-02	 -4.774263e-02	 2.327748e-03
0	 0	 -2.447565e-03
1.153050e-02	 4.774263e-02	 2.327748e-03
3.222018e-02	 -1.407083e-02	 2.582324e-11
1.559718e-02	 6.339618e-02	 -8.575482e-11
0	 0	 -4.480203e-03
0	 0	 -4.480203e-03
3.105210e-10	 5.033718e-10	 1.659467e-03
0	 0	 -1.659467e-03
0	 0	 -1.659467e-03
-3.222018e-02	 1.407083e-02	 -2.496598e-11
-1.559718e-02	 -6.339618e-02	 8.506363e-11
5.245793e-10	 5.880180e-10	 4.480203e-03
-1.275596e-02	 -4.721755e-02	 -4.589891e-03
2.996461e-02	 -1.488332e-02	 2.912770e-11
-2.143430e-02	 1.165382e-02	 1.737664e-03
1.635129e-02	 6.290866e-02	 -9.278624e-11
-1.275596e-02	 -4.721755e-02	 4.589892e-03
1.275597e-02	 4.721755e-02	 4.589891e-03
0	 0	 -2.430762e-03
2.143430e-02	 -1.165382e-02	 -1.737664e-03
3.104551e-10	 5.027906e-10	 2.430762e-03
0	 0	 -2.430762e-03
5.218942e-10	 5.878719e-10	 6.497773e-03
0	 0	 -6.497773e-03
1.275596e-02	 4.721755e-02	 -4.589892e-03
0	 0	 -6.497772e-03
2.143430e-02	 -1.165382e-02	 1.737664e-03
-2.143430e-02	 1.165382e-02	 -1.737664e-03
-2.996461e-02	 1.488332e-02	 -2.836496e-11
-1.635129e-02	 -6.290866e-02	 9.203510e-11
0	 0	 -3.202134e-03
2.768187e-02	 -1.570552e-02	 3.242575e-11
-2.768187e-02	 1.570553e-02	 -3.175797e-11
0	 0	 -3.202134e-03
0	 0	 -8.512269e-03
-1.711635e-02	 -6.241335e-02	 9.899632e-11
0	 0	 -8.512269e-03
1.711635e-02	 6.241335e-02	 -9.980711e-11
3.103914e-10	 5.021426e-10	 3.202134e-03
5.191969e-10	 5.876402e-10	 8.512269e-03
1.815447e-02	 -1.286418e-02	 -2.605050e-03
1.393190e-02	 4.654523e-02	 -6.842801e-03
-1.786071e-02	 -6.185140e-02	 1.059736e-10
-1.393190e-02	 -4.654523e-02	 -6.842801e-03
0	 0	 -3.978059e-03
2.537948e-02	 -1.650167e-02	 3.573777e-11
3.104646e-10	 5.012242e-10	 3.978059e-03
-1.815447e-02	 1.286418e-02	 2.605050e-03
-2.537947e-02	 1.650167e-02	 -3.516489e-11
-1.815447e-02	 1.286418e-02	 -2.605050e-03
0	 0	 -3.978059e-03
0	 0	 -1.053623e-02
1.786071e-02	 6.185140e-02	 -1.068440e-10
5.163233e-10	 5.870339e-10	 1.053623e-02
-1.393190e-02	 -4.654523e-02	 6.842801e-03
0	 0	 -1.053623e-02
1.815447e-02	 -1.286418e-02	 2.605050e-03
1.393190e-02	 4.654523e-02	 6.842801e-03
0	 0	 -2.493585e-03
3.567175e-10	 4.516995e-10	 2.493585e-03
-4.514467e-02	 4.107853e-02	 -4.403318e-12
0	 0	 -2.493585e-03
0	 0	 -1.812593e-03
4.845073e-10	 5.529407e-10	 1.812593e-03
-4.434319e-03	 -4.672714e-02	 8.406163e-11
0	 0	 -1.812593e-03