# vtk DataFile Version 3.0
Unstructured Grid Example
ASCII
DATASET UNSTRUCTURED_GRID
POINTS 832 float
-1	 0	 0
-1	 0	 3.750000e-01
-1	 0	 7.500000e-01
-1	 0	 1.125000e+00
-1	 0	 1.500000e+00
-1	 0	 1.875000e+00
-1	 0	 2.250000e+00
-1	 0	 2.625000e+00
-1	 0	 3
-9.875000e-01	 0	 0
-9.875000e-01	 0	 1.500000e+00
-9.875000e-01	 0	 3
-9.875000e-01	 0	 2.250000e+00
-9.875000e-01	 0	 7.500000e-01
-9.833054e-01	 -1.819631e-01	 7.500000e-01
-9.833054e-01	 -1.819631e-01	 0
-9.833054e-01	 -1.819631e-01	 1.500000e+00
-9.833054e-01	 -1.819631e-01	 3.000000e+00
-9.833054e-01	 1.819631e-01	 2.250000e+00
-9.833054e-01	 1.819631e-01	 0
-9.833054e-01	 1.819631e-01	 1.500000e+00
-9.833054e-01	 1.819631e-01	 3.000000e+00
-9.833054e-01	 1.819631e-01	 7.500000e-01
-9.833054e-01	 -1.819631e-01	 2.250000e+00
-9.750000e-01	 0	 7.500000e-01
-9.750000e-01	 0	 1.125000e+00
-9.750000e-01	 0	 0
-9.750000e-01	 0	 3.750000e-01
-9.750000e-01	 0	 1.875000e+00
-9.750000e-01	 0	 2.625000e+00
-9.750000e-01	 0	 3
-9.750000e-01	 0	 1.500000e+00
-9.750000e-01	 0	 2.250000e+00
-9.625000e-01	 0	 1.500000e+00
-9.625000e-01	 0	 2.250000e+00
-9.625000e-01	 0	 0
-9.625000e-01	 0	 7.500000e-01
-9.625000e-01	 0	 3
-9.587227e-01	 -1.774140e-01	 0
-9.587227e-01	 -1.774140e-01	 3.000000e+00
-9.587227e-01	 -1.774140e-01	 1.500000e+00
-9.587227e-01	 1.774140e-01	 0
-9.587227e-01	 1.774140e-01	 3.000000e+00
-9.587227e-01	 1.774140e-01	 1.500000e+00
-9.587227e-01	 1.774140e-01	 7.500000e-01
-9.587227e-01	 -1.774140e-01	 7.500000e-01
-9.587227e-01	 -1.774140e-01	 2.250000e+00
-9.587227e-01	 1.774140e-01	 2.250000e+00
-9.500000e-01	 0	 0
-9.500000e-01	 0	 3.750000e-01
-9.500000e-01	 0	 1.125000e+00
-9.500000e-01	 0	 1.500000e+00
-9.500000e-01	 0	 1.875000e+00
-9.500000e-01	 0	 2.250000e+00
-9.500000e-01	 0	 2.625000e+00
-9.500000e-01	 0	 3
-9.500000e-01	 0	 7.500000e-01
-9.341401e-01	 -1.728649e-01	 1.500000e+00
-9.341401e-01	 -1.728649e-01	 0
-9.341401e-01	 -1.728649e-01	 3.000000e+00
-9.341401e-01	 1.728649e-01	 2.250000e+00
-9.341401e-01	 1.728649e-01	 0
-9.341401e-01	 1.728649e-01	 1.500000e+00
-9.341401e-01	 1.728649e-01	 3.000000e+00
-9.341401e-01	 -1.728649e-01	 7.500000e-01
-9.341401e-01	 -1.728649e-01	 2.250000e+00
-9.341401e-01	 1.728649e-01	 7.500000e-01
-9.297883e-01	 -3.680947e-01	 1.125000e+00
-9.297883e-01	 -3.680947e-01	 0
-9.297883e-01	 -3.680947e-01	 7.500000e-01
-9.297883e-01	 -3.680947e-01	 1.500000e+00
-9.297883e-01	 -3.680947e-01	 1.875000e+00
-9.297883e-01	 -3.680947e-01	 2.250000e+00
-9.297883e-01	 -3.680947e-01	 2.625000e+00
-9.297883e-01	 -3.680947e-01	 3.000000e+00
-9.297883e-01	 -3.680947e-01	 3.750000e-01
-9.297883e-01	 3.680947e-01	 3.750000e-01
-9.297883e-01	 3.680947e-01	 2.250000e+00
-9.297883e-01	 3.680947e-01	 2.625000e+00
-9.297883e-01	 3.680947e-01	 0
-9.297883e-01	 3.680947e-01	 7.500000e-01
-9.297883e-01	 3.680947e-01	 1.500000e+00
-9.297883e-01	 3.680947e-01	 1.875000e+00
-9.297883e-01	 3.680947e-01	 3.000000e+00
-9.297883e-01	 3.680947e-01	 1.125000e+00
-9.181659e-01	 3.634935e-01	 7.500000e-01
-9.181659e-01	 -3.634935e-01	 0
-9.181659e-01	 -3.634935e-01	 7.500000e-01
-9.181659e-01	 -3.634935e-01	 2.250000e+00
-9.181659e-01	 -3.634935e-01	 3
-9.181659e-01	 3.634935e-01	 0
-9.181659e-01	 3.634935e-01	 2.250000e+00
-9.181659e-01	 3.634935e-01	 3
-9.181659e-01	 -3.634935e-01	 1.500000e+00
-9.181659e-01	 3.634935e-01	 1.500000e+00
-9.065436e-01	 -3.588923e-01	 1.125000e+00
-9.065436e-01	 -3.588923e-01	 2.625000e+00
-9.065436e-01	 -3.588923e-01	 0
-9.065436e-01	 -3.588923e-01	 3.750000e-01
-9.065436e-01	 -3.588923e-01	 1.500000e+00
-9.065436e-01	 -3.588923e-01	 3
-9.065436e-01	 3.588923e-01	 2.625000e+00
-9.065436e-01	 3.588923e-01	 1.125000e+00
-9.065436e-01	 3.588923e-01	 0
-9.065436e-01	 3.588923e-01	 3.750000e-01
-9.065436e-01	 3.588923e-01	 3
-9.065436e-01	 -3.588923e-01	 7.500000e-01
-9.065436e-01	 -3.588923e-01	 1.875000e+00
-9.065436e-01	 3.588923e-01	 1.875000e+00
-9.065436e-01	 3.588923e-01	 1.500000e+00
-9.065436e-01	 -3.588923e-01	 2.250000e+00
-9.065436e-01	 3.588923e-01	 7.500000e-01
-9.065436e-01	 3.588923e-01	 2.250000e+00
-8.949212e-01	 3.542912e-01	 1.500000e+00
-8.949212e-01	 -3.542912e-01	 1.500000e+00
-8.949212e-01	 -3.542912e-01	 0
-8.949212e-01	 -3.542912e-01	 3.000000e+00
-8.949212e-01	 3.542912e-01	 0
-8.949212e-01	 3.542912e-01	 3.000000e+00
-8.949212e-01	 -3.542912e-01	 2.250000e+00
-8.949212e-01	 -3.542912e-01	 7.500000e-01
-8.949212e-01	 3.542912e-01	 2.250000e+00
-8.949212e-01	 3.542912e-01	 7.500000e-01
-8.832989e-01	 -3.496900e-01	 1.125000e+00
-8.832989e-01	 -3.496900e-01	 1.875000e+00
-8.832989e-01	 -3.496900e-01	 2.625000e+00
-8.832989e-01	 -3.496900e-01	 2.250000e+00
-8.832989e-01	 3.496900e-01	 1.125000e+00
-8.832989e-01	 -3.496900e-01	 0
-8.832989e-01	 -3.496900e-01	 3.000000e+00
-8.832989e-01	 -3.496900e-01	 3.750000e-01
-8.832989e-01	 -3.496900e-01	 7.500000e-01
-8.832989e-01	 3.496900e-01	 3.750000e-01
-8.832989e-01	 3.496900e-01	 7.500000e-01
-8.832989e-01	 3.496900e-01	 2.250000e+00
-8.832989e-01	 3.496900e-01	 2.625000e+00
-8.832989e-01	 3.496900e-01	 0
-8.832989e-01	 3.496900e-01	 1.875000e+00
-8.832989e-01	 3.496900e-01	 3.000000e+00
-8.832989e-01	 -3.496900e-01	 1.500000e+00
-8.832989e-01	 3.496900e-01	 1.500000e+00
-8.369955e-01	 -5.472098e-01	 0
-8.369955e-01	 -5.472098e-01	 7.500000e-01
-8.369955e-01	 -5.472098e-01	 1.500000e+00
-8.369955e-01	 -5.472098e-01	 2.250000e+00
-8.369955e-01	 -5.472098e-01	 3
-8.369955e-01	 5.472098e-01	 0
-8.369955e-01	 5.472098e-01	 7.500000e-01
-8.369955e-01	 5.472098e-01	 1.500000e+00
-8.369955e-01	 5.472098e-01	 2.250000e+00
-8.369955e-01	 5.472098e-01	 3
-8.160706e-01	 -5.335295e-01	 7.500000e-01
-8.160706e-01	 5.335295e-01	 7.500000e-01
-8.160706e-01	 -5.335295e-01	 1.500000e+00
-8.160706e-01	 -5.335295e-01	 2.250000e+00
-8.160706e-01	 5.335295e-01	 1.500000e+00
-8.160706e-01	 5.335295e-01	 2.250000e+00
-8.160706e-01	 -5.335295e-01	 0
-8.160706e-01	 -5.335295e-01	 3.000000e+00
-8.160706e-01	 5.335295e-01	 0
-8.160706e-01	 5.335295e-01	 3.000000e+00
-7.951457e-01	 -5.198493e-01	 7.500000e-01
-7.951457e-01	 5.198493e-01	 7.500000e-01
-7.951457e-01	 -5.198493e-01	 0
-7.951457e-01	 -5.198493e-01	 1.500000e+00
-7.951457e-01	 -5.198493e-01	 2.250000e+00
-7.951457e-01	 -5.198493e-01	 3
-7.951457e-01	 5.198493e-01	 0
-7.951457e-01	 5.198493e-01	 1.500000e+00
-7.951457e-01	 5.198493e-01	 2.250000e+00
-7.951457e-01	 5.198493e-01	 3
-7.071068e-01	 -7.071068e-01	 0
-7.071068e-01	 -7.071068e-01	 3.750000e-01
-7.071068e-01	 -7.071068e-01	 7.500000e-01
-7.071068e-01	 -7.071068e-01	 1.125000e+00
-7.071068e-01	 -7.071068e-01	 1.500000e+00
-7.071068e-01	 -7.071068e-01	 1.875000e+00
-7.071068e-01	 -7.071068e-01	 2.250000e+00
-7.071068e-01	 -7.071068e-01	 2.625000e+00
-7.071068e-01	 -7.071068e-01	 3.000000e+00
-7.071068e-01	 7.071068e-01	 0
-7.071068e-01	 7.071068e-01	 3.750000e-01
-7.071068e-01	 7.071068e-01	 7.500000e-01
-7.071068e-01	 7.071068e-01	 1.125000e+00
-7.071068e-01	 7.071068e-01	 1.500000e+00
-7.071068e-01	 7.071068e-01	 1.875000e+00
-7.071068e-01	 7.071068e-01	 2.250000e+00
-7.071068e-01	 7.071068e-01	 2.625000e+00
-7.071068e-01	 7.071068e-01	 3.000000e+00
-6.982679e-01	 -6.982679e-01	 7.500000e-01
-6.982679e-01	 6.982679e-01	 7.500000e-01
-6.982679e-01	 -6.982679e-01	 0
-6.982679e-01	 -6.982679e-01	 2.250000e+00
-6.982679e-01	 -6.982679e-01	 3.000000e+00
-6.982679e-01	 6.982679e-01	 0
-6.982679e-01	 6.982679e-01	 2.250000e+00
-6.982679e-01	 6.982679e-01	 3.000000e+00
-6.982679e-01	 -6.982679e-01	 1.500000e+00
-6.982679e-01	 6.982679e-01	 1.500000e+00
-6.894291e-01	 -6.894291e-01	 3.750000e-01
-6.894291e-01	 -6.894291e-01	 2.625000e+00
-6.894291e-01	 -6.894291e-01	 0
-6.894291e-01	 -6.894291e-01	 1.500000e+00
-6.894291e-01	 -6.894291e-01	 2.250000e+00
-6.894291e-01	 -6.894291e-01	 3.000000e+00
-6.894291e-01	 6.894291e-01	 3.750000e-01
-6.894291e-01	 6.894291e-01	 2.625000e+00
-6.894291e-01	 -6.894291e-01	 1.875000e+00
-6.894291e-01	 6.894291e-01	 1.875000e+00
-6.894291e-01	 -6.894291e-01	 7.500000e-01
-6.894291e-01	 -6.894291e-01	 1.125000e+00
-6.894291e-01	 6.894291e-01	 0
-6.894291e-01	 6.894291e-01	 1.500000e+00
-6.894291e-01	 6.894291e-01	 2.250000e+00
-6.894291e-01	 6.894291e-01	 3.000000e+00
-6.894291e-01	 6.894291e-01	 7.500000e-01
-6.894291e-01	 6.894291e-01	 1.125000e+00
-6.805903e-01	 6.805903e-01	 7.500000e-01
-6.805903e-01	 -6.805903e-01	 7.500000e-01
-6.805903e-01	 -6.805903e-01	 0
-6.805903e-01	 -6.805903e-01	 1.500000e+00
-6.805903e-01	 -6.805903e-01	 3.000000e+00
-6.805903e-01	 6.805903e-01	 0
-6.805903e-01	 6.805903e-01	 1.500000e+00
-6.805903e-01	 6.805903e-01	 3.000000e+00
-6.805903e-01	 6.805903e-01	 2.250000e+00
-6.805903e-01	 -6.805903e-01	 2.250000e+00
-6.717514e-01	 -6.717514e-01	 2.625000e+00
-6.717514e-01	 6.717514e-01	 2.625000e+00
-6.717514e-01	 -6.717514e-01	 0
-6.717514e-01	 -6.717514e-01	 3.750000e-01
-6.717514e-01	 -6.717514e-01	 7.500000e-01
-6.717514e-01	 -6.717514e-01	 1.125000e+00
-6.717514e-01	 -6.717514e-01	 1.875000e+00
-6.717514e-01	 -6.717514e-01	 3.000000e+00
-6.717514e-01	 -6.717514e-01	 2.250000e+00
-6.717514e-01	 6.717514e-01	 1.500000e+00
-6.717514e-01	 6.717514e-01	 0
-6.717514e-01	 6.717514e-01	 3.750000e-01
-6.717514e-01	 6.717514e-01	 7.500000e-01
-6.717514e-01	 6.717514e-01	 1.125000e+00
-6.717514e-01	 6.717514e-01	 1.875000e+00
-6.717514e-01	 6.717514e-01	 3.000000e+00
-6.717514e-01	 -6.717514e-01	 1.500000e+00
-6.717514e-01	 6.717514e-01	 2.250000e+00
-5.472098e-01	 -8.369955e-01	 0
-5.472098e-01	 -8.369955e-01	 7.500000e-01
-5.472098e-01	 -8.369955e-01	 1.500000e+00
-5.472098e-01	 -8.369955e-01	 2.250000e+00
-5.472098e-01	 -8.369955e-01	 3
-5.472098e-01	 8.369955e-01	 0
-5.472098e-01	 8.369955e-01	 7.500000e-01
-5.472098e-01	 8.369955e-01	 1.500000e+00
-5.472098e-01	 8.369955e-01	 2.250000e+00
-5.472098e-01	 8.369955e-01	 3
-5.335295e-01	 -8.160706e-01	 1.500000e+00
-5.335295e-01	 -8.160706e-01	 2.250000e+00
-5.335295e-01	 8.160706e-01	 0
-5.335295e-01	 8.160706e-01	 3.000000e+00
[...]
POINT_DATA 832
VECTORS displacement float
0	 0	 -2.322447e-03
-1.078951e-02	 -1.258496e-02	 -1.521926e-03
-1.434433e-02	 -1.819857e-02	 1.260797e-10
-1.078951e-02	 -1.258496e-02	 1.521927e-03
6.026116e-10	 3.169269e-10	 2.322448e-03
1.078951e-02	 1.258497e-02	 1.521926e-03
1.434433e-02	 1.819857e-02	 -1.035758e-10
1.078951e-02	 1.258497e-02	 -1.521927e-03
0	 0	 -2.322448e-03
0	 0	 -1.874283e-03
6.036854e-10	 3.416757e-10	 1.874283e-03
0	 0	 -1.874283e-03
1.440141e-02	 2.082993e-02	 -9.800923e-11
-1.440141e-02	 -2.082993e-02	 1.204340e-10
-4.660956e-02	 -2.193865e-02	 1.523170e-10
0	 0	 -8.002946e-03
8.821259e-10	 3.630641e-10	 8.002946e-03
0	 0	 -8.002947e-03
-2.106730e-02	 2.114181e-02	 -7.373234e-11
0	 0	 3.911820e-03
3.072642e-10	 3.529270e-10	 -3.911820e-03
0	 0	 3.911820e-03
2.106730e-02	 -2.114181e-02	 9.539771e-11
4.660956e-02	 2.193865e-02	 -1.292261e-10
-1.444129e-02	 -2.344738e-02	 1.147803e-10
-1.083400e-02	 -1.643082e-02	 1.016190e-03
0	 0	 -1.428556e-03
-1.083400e-02	 -1.643082e-02	 -1.016190e-03
1.083401e-02	 1.643082e-02	 1.016190e-03
1.083401e-02	 1.643082e-02	 -1.016190e-03
0	 0	 -1.428556e-03
6.046988e-10	 3.662111e-10	 1.428556e-03
1.444129e-02	 2.344738e-02	 -9.243439e-11
6.056867e-10	 3.905447e-10	 9.819720e-04
1.447839e-02	 2.603504e-02	 -8.685049e-11
0	 0	 -9.819718e-04
-1.447839e-02	 -2.603504e-02	 1.091175e-10
0	 0	 -9.819721e-04
0	 0	 -4.994681e-03
0	 0	 -4.994681e-03
8.797933e-10	 3.897353e-10	 4.994681e-03
0	 0	 2.418506e-03
0	 0	 2.418506e-03
3.142099e-10	 3.824921e-10	 -2.418506e-03
2.032221e-02	 -2.547730e-02	 9.072325e-11
-4.612469e-02	 -2.522030e-02	 1.347415e-10
4.612469e-02	 2.522030e-02	 -1.117631e-10
-2.032221e-02	 2.547730e-02	 -6.928608e-11
0	 0	 -5.318768e-04
-1.083963e-02	 -2.026000e-02	 -5.084623e-04
-1.083963e-02	 -2.026000e-02	 5.084625e-04
6.066088e-10	 4.151271e-10	 5.318769e-04
1.083963e-02	 2.026000e-02	 5.084624e-04
1.449605e-02	 2.865177e-02	 -8.125908e-11
1.083963e-02	 2.026000e-02	 -5.084625e-04
0	 0	 -5.318770e-04
-1.449605e-02	 -2.865177e-02	 1.034443e-10
8.756436e-10	 4.163030e-10	 1.982401e-03
0	 0	 -1.982401e-03
0	 0	 -1.982401e-03
-1.947516e-02	 2.984422e-02	 -6.480630e-11
0	 0	 9.220963e-04
3.225888e-10	 4.120655e-10	 -9.220961e-04
0	 0	 9.220960e-04
-4.545708e-02	 -2.850492e-02	 1.171404e-10
4.545708e-02	 2.850492e-02	 -9.427424e-11
1.947516e-02	 -2.984422e-02	 8.601503e-11
-4.562952e-02	 -2.135009e-02	 7.092059e-03
0	 0	 -1.090223e-02
-6.031575e-02	 -2.850307e-02	 1.625706e-10
9.720629e-10	 4.187549e-10	 1.090223e-02
4.562953e-02	 2.135009e-02	 7.092059e-03
6.031575e-02	 2.850307e-02	 -1.392932e-10
4.562952e-02	 2.135009e-02	 -7.092059e-03
0	 0	 -1.090224e-02
-4.562952e-02	 -2.135009e-02	 -7.092059e-03
3.572983e-02	 -2.259121e-02	 5.846479e-03
-4.698634e-02	 3.071302e-02	 -4.894660e-11
-3.572983e-02	 2.259121e-02	 5.846479e-03
0	 0	 8.974627e-03
4.698634e-02	 -3.071302e-02	 7.007251e-11
1.736503e-10	 4.087135e-10	 -8.974627e-03
-3.572983e-02	 2.259121e-02	 -5.846479e-03
0	 0	 8.974627e-03
3.572983e-02	 -2.259120e-02	 -5.846479e-03
4.662639e-02	 -3.222762e-02	 6.968778e-11
0	 0	 -8.801646e-03
-6.035498e-02	 -2.912215e-02	 1.524446e-10
6.035498e-02	 2.912215e-02	 -1.292014e-10
0	 0	 -8.801646e-03
0	 0	 7.240866e-03
-4.662639e-02	 3.222762e-02	 -4.871346e-11
0	 0	 7.240866e-03
9.742335e-10	 4.195752e-10	 8.801646e-03
1.745933e-10	 4.120888e-10	 -7.240866e-03
-4.553779e-02	 -2.213586e-02	 4.751866e-03
4.553779e-02	 2.213586e-02	 -4.751866e-03
0	 0	 -6.711373e-03
-4.553779e-02	 -2.213586e-02	 -4.751865e-03
9.758642e-10	 4.201897e-10	 6.711373e-03
0	 0	 -6.711374e-03
-3.508473e-02	 2.468664e-02	 3.913525e-03
3.508473e-02	 -2.468664e-02	 -3.913525e-03
0	 0	 5.515978e-03
3.508473e-02	 -2.468664e-02	 3.913525e-03
0	 0	 5.515978e-03
-6.032477e-02	 -2.971345e-02	 1.423420e-10
4.553779e-02	 2.213586e-02	 4.751865e-03
-3.508473e-02	 2.468664e-02	 -3.913525e-03
1.760037e-10	 4.152645e-10	 -5.515978e-03
6.032477e-02	 2.971345e-02	 -1.191334e-10
4.620893e-02	 -3.371474e-02	 6.926934e-11
-4.620893e-02	 3.371474e-02	 -4.844377e-11
1.775030e-10	 4.184313e-10	 -3.789501e-03
9.773602e-10	 4.207776e-10	 4.618586e-03
0	 0	 -4.618585e-03
0	 0	 -4.618586e-03
0	 0	 3.789501e-03
0	 0	 3.789501e-03
6.029331e-02	 3.029924e-02	 -1.090492e-10
-6.029331e-02	 -3.029924e-02	 1.322251e-10
-4.579536e-02	 3.518515e-02	 -4.817594e-11
4.579536e-02	 -3.518515e-02	 6.885213e-11
-4.529259e-02	 -2.285983e-02	 2.403126e-03
4.529259e-02	 2.285983e-02	 2.403126e-03
4.529259e-02	 2.285983e-02	 -2.403126e-03
6.018166e-02	 3.085684e-02	 -9.892058e-11
3.431250e-02	 -2.672356e-02	 -1.974266e-03
0	 0	 -2.509865e-03
0	 0	 -2.509865e-03
-4.529259e-02	 -2.285983e-02	 -2.403126e-03
-6.018166e-02	 -3.085684e-02	 1.220628e-10
3.431250e-02	 -2.672356e-02	 1.974266e-03
4.530947e-02	 -3.664192e-02	 6.845442e-11
-4.530947e-02	 3.664193e-02	 -4.793083e-11
-3.431250e-02	 2.672356e-02	 1.974266e-03
0	 0	 2.049662e-03
-3.431250e-02	 2.672356e-02	 -1.974266e-03
0	 0	 2.049662e-03
9.782199e-10	 4.210942e-10	 2.509865e-03
1.795810e-10	 4.213653e-10	 -2.049662e-03
0	 0	 -1.080876e-02
-5.898167e-02	 -3.080795e-02	 1.546604e-10
8.606078e-10	 3.926251e-10	 1.080876e-02
5.898167e-02	 3.080795e-02	 -1.312213e-10
0	 0	 -1.080876e-02
0	 0	 1.162313e-02
5.933484e-02	 -3.969216e-02	 5.328019e-11
2.400418e-10	 3.977840e-10	 -1.162313e-02
-5.933484e-02	 3.969216e-02	 -3.268050e-11
0	 0	 1.162313e-02
-6.005257e-02	 -2.945463e-02	 1.365123e-10
5.941262e-02	 -3.987624e-02	 5.251123e-11
8.775401e-10	 3.713988e-10	 6.830477e-03
6.005257e-02	 2.945463e-02	 -1.130337e-10
2.284934e-10	 3.786415e-10	 -7.338094e-03
-5.941262e-02	 3.987624e-02	 -3.231170e-11
0	 0	 -6.830476e-03
0	 0	 -6.830477e-03
0	 0	 7.338094e-03
0	 0	 7.338094e-03
-6.095371e-02	 -2.796555e-02	 1.183410e-10
5.929344e-02	 -3.993134e-02	 5.170715e-11
0	 0	 -2.848508e-03
8.932098e-10	 3.490573e-10	 2.848508e-03
6.095371e-02	 2.796555e-02	 -9.481974e-11
0	 0	 -2.848509e-03
0	 0	 3.048669e-03
2.181825e-10	 3.584795e-10	 -3.048669e-03
-5.929344e-02	 3.993134e-02	 -3.190950e-11
0	 0	 3.048669e-03
0	 0	 -6.085328e-03
-2.741709e-02	 -1.217891e-02	 -3.969557e-03
-3.724924e-02	 -1.519536e-02	 1.266330e-10
-2.741709e-02	 -1.217891e-02	 3.969557e-03
6.023255e-10	 2.083605e-10	 6.085328e-03
2.741709e-02	 1.217891e-02	 3.969557e-03
3.724924e-02	 1.519536e-02	 -1.031247e-10
2.741709e-02	 1.217891e-02	 -3.969557e-03
0	 0	 -6.085328e-03
0	 0	 9.322446e-03
3.530308e-02	 -2.535619e-02	 6.081181e-03
4.736932e-02	 -3.297341e-02	 4.763628e-11
3.530308e-02	 -2.535619e-02	 -6.081181e-03
4.701034e-10	 2.273235e-10	 -9.322446e-03
-3.530308e-02	 2.535619e-02	 -6.081181e-03
-4.736932e-02	 3.297341e-02	 -2.737681e-11
-3.530308e-02	 2.535619e-02	 6.081181e-03
0	 0	 9.322446e-03
-3.886047e-02	 -1.379417e-02	 1.208419e-10
4.851340e-02	 -3.215110e-02	 4.541580e-11
0	 0	 -4.920975e-03
3.886047e-02	 1.379417e-02	 -9.726362e-11
0	 0	 -4.920975e-03
0	 0	 7.538710e-03
-4.851340e-02	 3.215110e-02	 -2.540952e-11
0	 0	 7.538710e-03
6.200053e-10	 1.922523e-10	 4.920975e-03
4.543121e-10	 2.109722e-10	 -7.538710e-03
-2.966568e-02	 -1.009024e-02	 -2.661045e-03
2.966568e-02	 1.009024e-02	 -2.661045e-03
0	 0	 -3.761976e-03
6.375192e-10	 1.762471e-10	 3.761976e-03
4.043820e-02	 1.237006e-02	 -9.139707e-11
0	 0	 -3.761976e-03
3.684117e-02	 -2.406309e-02	 4.076600e-03
-3.684117e-02	 2.406309e-02	 4.076600e-03
2.966568e-02	 1.009024e-02	 2.661045e-03
-3.684117e-02	 2.406309e-02	 -4.076600e-03
-4.043820e-02	 -1.237006e-02	 1.150477e-10
-2.966568e-02	 -1.009024e-02	 2.661045e-03
0	 0	 5.763176e-03
4.386689e-10	 1.947980e-10	 -5.763176e-03
-4.961082e-02	 3.128904e-02	 -2.344341e-11
0	 0	 5.763176e-03
4.961082e-02	 -3.128904e-02	 4.319881e-11
3.684117e-02	 -2.406309e-02	 -4.076600e-03
5.069329e-02	 -3.043543e-02	 4.098123e-11
-4.199589e-02	 -1.096176e-02	 1.092471e-10
0	 0	 -2.601823e-03
6.548867e-10	 1.603699e-10	 2.601823e-03
0	 0	 -2.601823e-03
0	 0	 3.985874e-03
4.231607e-10	 1.787664e-10	 -3.985874e-03
0	 0	 3.985874e-03
-5.069329e-02	 3.043543e-02	 -2.147567e-11
4.199589e-02	 1.096176e-02	 -8.552524e-11
3.184282e-02	 7.947339e-03	 -1.347690e-03
-3.827738e-02	 2.267934e-02	 2.064599e-03
0	 0	 -1.433021e-03
-3.184282e-02	 -7.947339e-03	 -1.347690e-03
-4.353623e-02	 -9.506930e-03	 1.034304e-10
-3.184282e-02	 -7.947338e-03	 1.347690e-03
3.184282e-02	 7.947339e-03	 1.347690e-03
0	 0	 -1.433021e-03
4.353623e-02	 9.506930e-03	 -7.963753e-11
4.075185e-10	 1.626220e-10	 -2.195323e-03
0	 0	 2.195323e-03
3.827738e-02	 -2.267934e-02	 2.064599e-03
5.173635e-02	 -2.952336e-02	 3.875013e-11
3.827738e-02	 -2.267934e-02	 -2.064599e-03
-3.827738e-02	 2.267934e-02	 -2.064599e-03
0	 0	 2.195323e-03
6.723597e-10	 1.443318e-10	 1.433021e-03
-5.173635e-02	 2.952336e-02	 -1.949788e-11
0	 0	 4.183526e-04
-1.373726e-02	 1.158843e-02	 9.369035e-11
4.126175e-10	 -3.914745e-11	 -4.183524e-04
1.373726e-02	 -1.158843e-02	 -7.020085e-11
0	 0	 4.183523e-04
0	 0	 4.294507e-03
2.854908e-02	 -1.326944e-02	 4.013110e-11
6.414917e-10	 -1.193221e-11	 -4.294507e-03
-2.854908e-02	 1.326944e-02	 -2.082764e-11
0	 0	 4.294507e-03
4.356643e-10	 -5.236758e-11	 -2.803245e-04
1.751890e-02	 -1.407261e-02	 -6.562840e-11
0	 0	 2.696441e-03
0	 0	 2.696441e-03
6.219559e-10	 -2.549285e-11	 -2.696441e-03
-3.208507e-02	 1.102660e-02	 -1.357985e-11
-1.751890e-02	 1.407260e-02	 8.931263e-11
0	 0	 2.803246e-04
0	 0	 2.803244e-04
3.208507e-02	 -1.102660e-02	 3.252765e-11
3.560934e-02	 -8.680545e-03	 2.492483e-11
-2.134445e-02	 1.658295e-02	 8.489230e-11
0	 0	 1.431339e-04
4.597032e-10	 -6.455676e-11	 -1.431338e-04
2.134445e-02	 -1.658295e-02	 -6.101095e-11
0	 0	 1.431337e-04
0	 0	 1.095842e-03
6.013903e-10	 -3.779742e-11	 -1.095842e-03
-3.560934e-02	 8.680545e-03	 -6.334998e-12
0	 0	 1.095842e-03
1.662268e-03	 3.210655e-02	 -4.323476e-03
7.569640e-03	 1.501324e-02	 1.605136e-03
0	 0	 6.675465e-03
9.611674e-04	 4.299402e-02	 7.072080e-11
3.781634e-10	 -1.433499e-10	 -6.675465e-03
-1.662267e-03	 -3.210655e-02	 -4.323476e-03
0	 0	 6.675465e-03
0	 0	 -2.499409e-03
1.147992e-02	 2.045024e-02	 1.876175e-11
6.571276e-10	 -9.642730e-11	 2.499409e-03
-7.569639e-03	 -1.501324e-02	 1.605136e-03
-1.147992e-02	 -2.045024e-02	 -6.738761e-13
-7.569639e-03	 -1.501324e-02	 -1.605136e-03
0	 0	 -2.499409e-03
1.662267e-03	 3.210655e-02	 4.323476e-03
-9.611669e-04	 -4.299402e-02	 -4.727527e-11
-1.662267e-03	 -3.210655e-02	 4.323476e-03
7.569640e-03	 1.501324e-02	 -1.605136e-03
3.780483e-10	 -1.436279e-10	 -5.399676e-03
6.592696e-10	 -9.672276e-11	 2.029202e-03
-9.458976e-04	 4.391032e-02	 7.048289e-11
0	 0	 5.399676e-03
9.458981e-04	 -4.391032e-02	 -4.691365e-11
0	 0	 5.399676e-03
0	 0	 -2.029202e-03
1.383526e-02	 2.143392e-02	 1.542592e-11
-1.383526e-02	 -2.143392e-02	 2.555652e-12
0	 0	 -2.029202e-03
2.859497e-03	 -4.478490e-02	 -4.652120e-11
-1.618553e-02	 -2.240255e-02	 5.757990e-12
1.098912e-02	 1.640758e-02	 1.084850e-03
-1.098911e-02	 -1.640758e-02	 -1.084850e-03
0	 0	 4.129335e-03
-1.151875e-03	 3.334608e-02	 2.905417e-03
0	 0	 4.129335e-03
3.781317e-10	 -1.434850e-10	 -4.129335e-03
0	 0	 -1.560412e-03
1.098911e-02	 1.640758e-02	 -1.084850e-03
6.612265e-10	 -9.651579e-11	 1.560412e-03
0	 0	 -1.560412e-03
-1.151875e-03	 3.334608e-02	 -2.905417e-03
1.151876e-03	 -3.334608e-02	 -2.905417e-03
-2.859497e-03	 4.478490e-02	 7.021409e-11
1.618553e-02	 2.240255e-02	 1.212150e-11
-1.098911e-02	 -1.640758e-02	 1.084850e-03
1.151876e-03	 -3.334608e-02	 2.905417e-03
3.782149e-10	 -1.432461e-10	 -2.856359e-03
4.748773e-03	 -4.564750e-02	 -4.613033e-11
-1.850681e-02	 -2.335866e-02	 8.966747e-12
0	 0	 -1.089850e-03
0	 0	 -1.089850e-03
6.631794e-10	 -9.623239e-11	 1.089850e-03
0	 0	 2.856359e-03
0	 0	 2.856359e-03
-4.748773e-03	 4.564750e-02	 6.994736e-11
1.850681e-02	 2.335866e-02	 8.811395e-12
-3.986491e-03	 3.449346e-02	 -1.480464e-03
0	 0	 1.574190e-03
3.986492e-03	 -3.449346e-02	 -1.480464e-03
0	 0	 1.574189e-03
3.785445e-10	 -1.424930e-10	 -1.574189e-03
0	 0	 -6.162493e-04
0	 0	 -6.162493e-04
1.440378e-02	 1.776872e-02	 5.607899e-04
-1.440378e-02	 -1.776872e-02	 5.607900e-04
-1.440378e-02	 -1.776872e-02	 -5.607899e-04
-3.986491e-03	 3.449346e-02	 1.480464e-03
-6.677075e-03	 4.647540e-02	 6.969781e-11
6.677076e-03	 -4.647540e-02	 -4.575638e-11
3.986491e-03	 -3.449346e-02	 1.480464e-03
6.648955e-10	 -9.534318e-11	 6.162493e-04
1.440378e-02	 1.776872e-02	 -5.607899e-04
-2.085832e-02	 -2.431210e-02	 1.220418e-11
2.085832e-02	 2.431210e-02	 5.468270e-12
6.421893e-03	 6.789632e-02	 5.791754e-11
2.629155e-03	 5.367766e-02	 -1.284647e-11
0	 0	 1.098793e-02
4.185580e-10	 -6.044152e-11	 -1.098793e-02
0	 0	 1.098793e-02
0	 0	 -8.484684e-03
5.998942e-10	 1.720592e-11	 8.484684e-03
0	 0	 -8.484684e-03
-6.421892e-03	 -6.789632e-02	 -3.485147e-11
-2.629154e-03	 -5.367766e-02	 3.009274e-11
4.714059e-03	 6.838642e-02	 5.734503e-11
0	 0	 6.909678e-03
0	 0	 6.909678e-03
5.937323e-03	 5.442617e-02	 -1.442984e-11
-5.937322e-03	 -5.442617e-02	 3.164267e-11
0	 0	 -5.352194e-03
0	 0	 -5.352194e-03
-4.714058e-03	 -6.838642e-02	 -3.403092e-11
6.280616e-10	 2.260700e-11	 5.352194e-03
3.953199e-10	 -5.521365e-11	 -6.909678e-03
6.562357e-10	 2.955963e-11	 2.218265e-03
0	 0	 2.828490e-03
3.722014e-10	 -4.852215e-11	 -2.828490e-03
0	 0	 2.828490e-03
0	 0	 -2.218265e-03
0	 0	 -2.218265e-03
-2.942112e-03	 -6.865435e-02	 -3.317953e-11
2.942113e-03	 6.865435e-02	 5.674461e-11
9.316831e-03	 5.501232e-02	 -1.600001e-11
-9.316831e-03	 -5.501232e-02	 3.317959e-11
0	 0	 1.105420e-02
2.644056e-03	 5.135507e-02	 7.243944e-03
3.823455e-03	 6.827501e-02	 5.452454e-11
2.644056e-03	 5.135507e-02	 -7.243944e-03
4.528037e-10	 1.928594e-10	 -1.105420e-02
-2.644055e-03	 -5.135507e-02	 -7.243944e-03
-3.823454e-03	 -6.827501e-02	 -3.220027e-11
-2.644055e-03	 -5.135507e-02	 7.243944e-03
0	 0	 1.105420e-02
0	 0	 8.921062e-03
4.304642e-10	 1.931930e-10	 -8.921062e-03
0	 0	 8.921062e-03
-4.376292e-03	 -6.854668e-02	 -3.031648e-11
4.376293e-03	 6.854668e-02	 5.276259e-11
4.926211e-03	 6.873649e-02	 5.099238e-11
3.452055e-03	 5.156683e-02	 -4.836778e-03
0	 0	 6.799528e-03
3.452055e-03	 5.156683e-02	 4.836779e-03
-3.452055e-03	 -5.156683e-02	 -4.836778e-03
-3.452055e-03	 -5.156683e-02	 4.836778e-03
0	 0	 6.799528e-03
4.083068e-10	 1.935685e-10	 -6.799528e-03
-4.926210e-03	 -6.873649e-02	 -2.842408e-11
3.863808e-10	 1.939550e-10	 -4.673912e-03
-5.469868e-03	 -6.891308e-02	 -2.652813e-11
0	 0	 4.673912e-03
5.469869e-03	 6.891308e-02	 4.921960e-11
0	 0	 4.673912e-03
0	 0	 2.531585e-03
4.256552e-03	 5.159360e-02	 2.420139e-03
4.256553e-03	 5.159360e-02	 -2.420139e-03
3.642468e-10	 1.943931e-10	 -2.531585e-03
-4.256552e-03	 -5.159360e-02	 -2.420139e-03
-6.019632e-03	 -6.899716e-02	 -2.463114e-11
-4.256552e-03	 -5.159360e-02	 2.420139e-03
0	 0	 2.531585e-03
6.019633e-03	 6.899716e-02	 4.744623e-11
6.019633e-03	 6.899716e-02	 -3.790284e-11
0	 0	 -2.531585e-03
4.256553e-03	 5.159360e-02	 -2.420139e-03
4.256553e-03	 5.159360e-02	 2.420139e-03
6.572052e-10	 3.059511e-10	 2.531585e-03
-4.256552e-03	 -5.159360e-02	 2.420139e-03
-6.019632e-03	 -6.899716e-02	 5.540851e-11
-4.256552e-03	 -5.159360e-02	 -2.420139e-03
0	 0	 -2.531585e-03
0	 0	 -4.673912e-03
5.469869e-03	 6.891308e-02	 -4.100790e-11
0	 0	 -4.673912e-03
6.327201e-10	 3.055206e-10	 4.673912e-03
-5.469868e-03	 -6.891308e-02	 5.844448e-11
6.084998e-10	 3.050356e-10	 6.799528e-03
-4.926210e-03	 -6.873649e-02	 6.147113e-11
0	 0	 -6.799528e-03
3.452055e-03	 5.156683e-02	 -4.836779e-03
-3.452054e-03	 -5.156683e-02	 4.836779e-03
-3.452055e-03	 -5.156683e-02	 -4.836778e-03
0	 0	 -6.799528e-03
4.926211e-03	 6.873649e-02	 -4.410400e-11
3.452056e-03	 5.156683e-02	 4.836778e-03
4.376293e-03	 6.854668e-02	 -4.719755e-11
-4.376292e-03	 -6.854668e-02	 6.449608e-11
0	 0	 -8.921062e-03
5.840911e-10	 3.045213e-10	 8.921062e-03
0	 0	 -8.921062e-03
0	 0	 -1.105420e-02
2.644056e-03	 5.135507e-02	 -7.243944e-03
3.823455e-03	 6.827501e-02	 -5.029280e-11
2.644056e-03	 5.135507e-02	 7.243944e-03
5.594542e-10	 3.039572e-10	 1.105420e-02
-2.644055e-03	 -5.135506e-02	 7.243944e-03
-3.823454e-03	 -6.827501e-02	 6.752170e-11
-2.644055e-03	 -5.135507e-02	 -7.243944e-03
0	 0	 -1.105420e-02
9.316831e-03	 5.501232e-02	 3.759631e-11
-9.316831e-03	 -5.501232e-02	 -1.541064e-11
2.942113e-03	 6.865435e-02	 -5.822109e-11
-2.942112e-03	 -6.865435e-02	 7.595485e-11
0	 0	 2.218265e-03
0	 0	 2.218265e-03
0	 0	 -2.828490e-03
6.526965e-10	 5.720672e-10	 2.828490e-03
0	 0	 -2.828490e-03
3.576169e-10	 4.539476e-10	 -2.218265e-03
6.274762e-10	 5.769413e-10	 6.909678e-03
3.862801e-10	 4.596955e-10	 -5.352194e-03
-4.714058e-03	 -6.838642e-02	 8.899765e-11
0	 0	 5.352194e-03
0	 0	 5.352194e-03
5.937323e-03	 5.442617e-02	 4.456413e-11
-5.937323e-03	 -5.442617e-02	 -2.252281e-11
0	 0	 -6.909678e-03
0	 0	 -6.909678e-03
4.714059e-03	 6.838642e-02	 -7.147456e-11
-2.629154e-03	 -5.367766e-02	 -2.963113e-11
-6.421892e-03	 -6.789632e-02	 1.020303e-10
0	 0	 8.484684e-03
4.149795e-10	 4.641883e-10	 -8.484684e-03
0	 0	 8.484684e-03
0	 0	 -1.098793e-02
6.021628e-10	 5.799562e-10	 1.098793e-02
0	 0	 -1.098793e-02
2.629155e-03	 5.367766e-02	 5.153128e-11
6.421893e-03	 6.789632e-02	 -8.471524e-11
2.085832e-02	 2.431210e-02	 2.279239e-11
-2.085832e-02	 -2.431210e-02	 -8.516674e-13
1.440378e-02	 1.776872e-02	 5.607900e-04
3.378169e-10	 5.964563e-10	 -6.162493e-04
-3.986491e-03	 3.449346e-02	 -1.480464e-03
-6.677075e-03	 4.647540e-02	 -7.261288e-11
6.677076e-03	 -4.647540e-02	 9.024940e-11
3.986491e-03	 -3.449346e-02	 -1.480464e-03
1.440378e-02	 1.776872e-02	 -5.607899e-04
-1.440378e-02	 -1.776872e-02	 -5.607899e-04
-1.440378e-02	 -1.776872e-02	 5.607899e-04
0	 0	 6.162494e-04
0	 0	 6.162493e-04
6.495231e-10	 6.639621e-10	 1.574189e-03
0	 0	 -1.574190e-03
3.986492e-03	 -3.449346e-02	 1.480464e-03
0	 0	 -1.574189e-03
-3.986491e-03	 3.449346e-02	 1.480464e-03
1.850681e-02	 2.335866e-02	 2.684217e-11
-4.748773e-03	 4.564751e-02	 -8.093201e-11
0	 0	 -2.856359e-03
0	 0	 -2.856359e-03
3.419412e-10	 5.981133e-10	 -1.089850e-03
0	 0	 1.089850e-03
0	 0	 1.089850e-03
-1.850681e-02	 -2.335866e-02	 -4.922533e-12
4.748774e-03	 -4.564750e-02	 9.843226e-11
6.502704e-10	 6.630613e-10	 2.856359e-03
1.151876e-03	 -3.334608e-02	 -2.905417e-03
1.618553e-02	 2.240255e-02	 3.086301e-11
-1.098911e-02	 -1.640758e-02	 -1.084850e-03
-2.859496e-03	 4.478490e-02	 -8.920776e-11
1.151876e-03	 -3.334608e-02	 2.905417e-03
-1.151875e-03	 3.334608e-02	 2.905417e-03
0	 0	 1.560412e-03
1.098911e-02	 1.640758e-02	 1.084850e-03
3.462817e-10	 5.992117e-10	 -1.560412e-03
0	 0	 1.560412e-03
6.507320e-10	 6.615070e-10	 4.129335e-03
0	 0	 -4.129335e-03
-1.151875e-03	 3.334608e-02	 -2.905417e-03
0	 0	 -4.129334e-03
1.098911e-02	 1.640758e-02	 -1.084850e-03
-1.098911e-02	 -1.640758e-02	 1.084850e-03
-1.618553e-02	 -2.240255e-02	 -8.964858e-12
2.859497e-03	 -4.478490e-02	 1.065729e-10
0	 0	 2.029202e-03
1.383526e-02	 2.143392e-02	 3.487660e-11
-1.383526e-02	 -2.143392e-02	 -1.300050e-11
0	 0	 2.029202e-03
0	 0	 -5.399676e-03
9.458982e-04	 -4.391032e-02	 1.147009e-10
0	 0	 -5.399676e-03
-9.458973e-04	 4.391032e-02	 -9.747052e-11
3.506714e-10	 6.002177e-10	 -2.029202e-03
6.512122e-10	 6.598398e-10	 5.399676e-03
7.569640e-03	 1.501324e-02	 1.605136e-03
1.662267e-03	 3.210655e-02	 -4.323477e-03
-9.611667e-04	 -4.299402e-02	 1.228564e-10
-1.662267e-03	 -3.210655e-02	 -4.323476e-03
0	 0	 2.499409e-03
1.147992e-02	 2.045024e-02	 3.891750e-11
3.553120e-10	 6.007844e-10	 -2.499409e-03
-7.569639e-03	 -1.501324e-02	 -1.605136e-03
-1.147992e-02	 -2.045024e-02	 -1.706268e-11
-7.569639e-03	 -1.501324e-02	 1.605136e-03
0	 0	 2.499409e-03
0	 0	 -6.675466e-03
9.611677e-04	 4.299402e-02	 -1.057603e-10
6.514902e-10	 6.576227e-10	 6.675465e-03
-1.662267e-03	 -3.210655e-02	 4.323476e-03
0	 0	 -6.675465e-03
7.569640e-03	 1.501324e-02	 -1.605136e-03
1.662268e-03	 3.210655e-02	 4.323476e-03
0	 0	 -1.095842e-03
3.918164e-10	 5.680817e-10	 1.095842e-03
-3.560934e-02	 8.680546e-03	 1.821682e-11
0	 0	 -1.095842e-03
0	 0	 -1.431339e-04
5.668691e-10	 5.643891e-10	 1.431338e-04
2.134445e-02	 -1.658294e-02	 9.783551e-11
0	 0	 -1.431337e-04