# vtk DataFile Version 3.0
Unstructured Grid Example
ASCII
DATASET UNSTRUCTURED_GRID
POINTS 832 float
-1	 0	 0
-1	 0	 3.750000e-01
-1	 0	 7.500000e-01
-1	 0	 1.125000e+00
-1	 0	 1.500000e+00
-1	 0	 1.875000e+00
-1	 0	 2.250000e+00
-1	 0	 2.625000e+00
-1	 0	 3
-9.875000e-01	 0	 0
-9.875000e-01	 0	 1.500000e+00
-9.875000e-01	 0	 3
-9.875000e-01	 0	 2.250000e+00
-9.875000e-01	 0	 7.500000e-01
-9.833054e-01	 -1.819631e-01	 7.500000e-01
-9.833054e-01	 -1.819631e-01	 0
-9.833054e-01	 -1.819631e-01	 1.500000e+00
-9.833054e-01	 -1.819631e-01	 3.000000e+00
-9.833054e-01	 1.819631e-01	 2.250000e+00
-9.833054e-01	 1.819631e-01	 0
-9.833054e-01	 1.819631e-01	 1.500000e+00
-9.833054e-01	 1.819631e-01	 3.000000e+00
-9.833054e-01	 1.819631e-01	 7.500000e-01
-9.833054e-01	 -1.819631e-01	 2.250000e+00
-9.750000e-01	 0	 7.500000e-01
-9.750000e-01	 0	 1.125000e+00
-9.750000e-01	 0	 0
-9.750000e-01	 0	 3.750000e-01
-9.750000e-01	 0	 1.875000e+00
-9.750000e-01	 0	 2.625000e+00
-9.750000e-01	 0	 3
-9.750000e-01	 0	 1.500000e+00
-9.750000e-01	 0	 2.250000e+00
-9.625000e-01	 0	 1.500000e+00
-9.625000e-01	 0	 2.250000e+00
-9.625000e-01	 0	 0
-9.625000e-01	 0	 7.500000e-01
-9.625000e-01	 0	 3
-9.587227e-01	 -1.774140e-01	 0
-9.587227e-01	 -1.774140e-01	 3.000000e+00
-9.587227e-01	 -1.774140e-01	 1.500000e+00
-9.587227e-01	 1.774140e-01	 0
-9.587227e-01	 1.774140e-01	 3.000000e+00
-9.587227e-01	 1.774140e-01	 1.500000e+00
-9.587227e-01	 1.774140e-01	 7.500000e-01
-9.587227e-01	 -1.774140e-01	 7.500000e-01
-9.587227e-01	 -1.774140e-01	 2.250000e+00
-9.587227e-01	 1.774140e-01	 2.250000e+00
-9.500000e-01	 0	 0
-9.500000e-01	 0	 3.750000e-01
-9.500000e-01	 0	 1.125000e+00
-9.500000e-01	 0	 1.500000e+00
-9.500000e-01	 0	 1.875000e+00
-9.500000e-01	 0	 2.250000e+00
-9.500000e-01	 0	 2.625000e+00
-9.500000e-01	 0	 3
-9.500000e-01	 0	 7.500000e-01
-9.341401e-01	 -1.728649e-01	 1.500000e+00
-9.341401e-01	 -1.728649e-01	 0
-9.341401e-01	 -1.728649e-01	 3.000000e+00
-9.341401e-01	 1.728649e-01	 2.250000e+00
-9.341401e-01	 1.728649e-01	 0
-9.341401e-01	 1.728649e-01	 1.500000e+00
-9.341401e-01	 1.728649e-01	 3.000000e+00
-9.341401e-01	 -1.728649e-01	 7.500000e-01
-9.341401e-01	 -1.728649e-01	 2.250000e+00
-9.341401e-01	 1.728649e-01	 7.500000e-01
-9.297883e-01	 -3.680947e-01	 1.125000e+00
-9.297883e-01	 -3.680947e-01	 0
-9.297883e-01	 -3.680947e-01	 7.500000e-01
-9.297883e-01	 -3.680947e-01	 1.500000e+00
-9.297883e-01	 -3.680947e-01	 1.875000e+00
-9.297883e-01	 -3.680947e-01	 2.250000e+00
-9.297883e-01	 -3.680947e-01	 2.625000e+00
-9.297883e-01	 -3.680947e-01	 3.000000e+00
-9.297883e-01	 -3.680947e-01	 3.750000e-01
-9.297883e-01	 3.680947e-01	 3.750000e-01
-9.297883e-01	 3.680947e-01	 2.250000e+00
-9.297883e-01	 3.680947e-01	 2.625000e+00
-9.297883e-01	 3.680947e-01	 0
-9.297883e-01	 3.680947e-01	 7.500000e-01
-9.297883e-01	 3.680947e-01	 1.500000e+00
-9.297883e-01	 3.680947e-01	 1.875000e+00
-9.297883e-01	 3.680947e-01	 3.000000e+00
-9.297883e-01	 3.680947e-01	 1.125000e+00
-9.181659e-01	 3.634935e-01	 7.500000e-01
-9.181659e-01	 -3.634935e-01	 0
-9.181659e-01	 -3.634935e-01	 7.500000e-01
-9.181659e-01	 -3.634935e-01	 2.250000e+00
-9.181659e-01	 -3.634935e-01	 3
-9.181659e-01	 3.634935e-01	 0
-9.181659e-01	 3.634935e-01	 2.250000e+00
-9.181659e-01	 3.634935e-01	 3
-9.181659e-01	 -3.634935e-01	 1.500000e+00
-9.181659e-01	 3.634935e-01	 1.500000e+00
-9.065436e-01	 -3.588923e-01	 1.125000e+00
-9.065436e-01	 -3.588923e-01	 2.625000e+00
-9.065436e-01	 -3.588923e-01	 0
-9.065436e-01	 -3.588923e-01	 3.750000e-01
-9.065436e-01	 -3.588923e-01	 1.500000e+00
-9.065436e-01	 -3.588923e-01	 3
-9.065436e-01	 3.588923e-01	 2.625000e+00
-9.065436e-01	 3.588923e-01	 1.125000e+00
-9.065436e-01	 3.588923e-01	 0
-9.065436e-01	 3.588923e-01	 3.750000e-01
-9.065436e-01	 3.588923e-01	 3
-9.065436e-01	 -3.588923e-01	 7.500000e-01
-9.065436e-01	 -3.588923e-01	 1.875000e+00
-9.065436e-01	 3.588923e-01	 1.875000e+00
-9.065436e-01	 3.588923e-01	 1.500000e+00
-9.065436e-01	 -3.588923e-01	 2.250000e+00
-9.065436e-01	 3.588923e-01	 7.500000e-01
-9.065436e-01	 3.588923e-01	 2.250000e+00
-8.949212e-01	 3.542912e-01	 1.500000e+00
-8.949212e-01	 -3.542912e-01	 1.500000e+00
-8.949212e-01	 -3.542912e-01	 0
-8.949212e-01	 -3.542912e-01	 3.000000e+00
-8.949212e-01	 3.542912e-01	 0
-8.949212e-01	 3.542912e-01	 3.000000e+00
-8.949212e-01	 -3.542912e-01	 2.250000e+00
-8.949212e-01	 -3.542912e-01	 7.500000e-01
-8.949212e-01	 3.542912e-01	 2.250000e+00
-8.949212e-01	 3.542912e-01	 7.500000e-01
-8.832989e-01	 -3.496900e-01	 1.125000e+00
-8.832989e-01	 -3.496900e-01	 1.875000e+00
-8.832989e-01	 -3.496900e-01	 2.625000e+00
-8.832989e-01	 -3.496900e-01	 2.250000e+00
-8.832989e-01	 3.496900e-01	 1.125000e+00
-8.832989e-01	 -3.496900e-01	 0
-8.832989e-01	 -3.496900e-01	 3.000000e+00
-8.832989e-01	 -3.496900e-01	 3.750000e-01
-8.832989e-01	 -3.496900e-01	 7.500000e-01
-8.832989e-01	 3.496900e-01	 3.750000e-01
-8.832989e-01	 3.496900e-01	 7.500000e-01
-8.832989e-01	 3.496900e-01	 2.250000e+00
-8.832989e-01	 3.496900e-01	 2.625000e+00
-8.832989e-01	 3.496900e-01	 0
-8.832989e-01	 3.496900e-01	 1.875000e+00
-8.832989e-01	 3.496900e-01	 3.000000e+00
-8.832989e-01	 -3.496900e-01	 1.500000e+00
-8.832989e-01	 3.496900e-01	 1.500000e+00
-8.369955e-01	 -5.472098e-01	 0
-8.369955e-01	 -5.472098e-01	 7.500000e-01
-8.369955e-01	 -5.472098e-01	 1.500000e+00
-8.369955e-01	 -5.472098e-01	 2.250000e+00
-8.369955e-01	 -5.472098e-01	 3
-8.369955e-01	 5.472098e-01	 0
-8.369955e-01	 5.472098e-01	 7.500000e-01
-8.369955e-01	 5.472098e-01	 1.500000e+00
-8.369955e-01	 5.472098e-01	 2.250000e+00
-8.369955e-01	 5.472098e-01	 3
-8.160706e-01	 -5.335295e-01	 7.500000e-01
-8.160706e-01	 5.335295e-01	 7.500000e-01
-8.160706e-01	 -5.335295e-01	 1.500000e+00
-8.160706e-01	 -5.335295e-01	 2.250000e+00
-8.160706e-01	 5.335295e-01	 1.500000e+00
-8.160706e-01	 5.335295e-01	 2.250000e+00
-8.160706e-01	 -5.335295e-01	 0
-8.160706e-01	 -5.335295e-01	 3.000000e+00
-8.160706e-01	 5.335295e-01	 0
-8.160706e-01	 5.335295e-01	 3.000000e+00
-7.951457e-01	 -5.198493e-01	 7.500000e-01
-7.951457e-01	 5.198493e-01	 7.500000e-01
-7.951457e-01	 -5.198493e-01	 0
-7.951457e-01	 -5.198493e-01	 1.500000e+00
-7.951457e-01	 -5.198493e-01	 2.250000e+00
-7.951457e-01	 -5.198493e-01	 3
-7.951457e-01	 5.198493e-01	 0
-7.951457e-01	 5.198493e-01	 1.500000e+00
-7.951457e-01	 5.198493e-01	 2.250000e+00
-7.951457e-01	 5.198493e-01	 3
-7.071068e-01	 -7.071068e-01	 0
-7.071068e-01	 -7.071068e-01	 3.750000e-01
-7.071068e-01	 -7.071068e-01	 7.500000e-01
-7.071068e-01	 -7.071068e-01	 1.125000e+00
-7.071068e-01	 -7.071068e-01	 1.500000e+00
-7.071068e-01	 -7.071068e-01	 1.875000e+00
-7.071068e-01	 -7.071068e-01	 2.250000e+00
-7.071068e-01	 -7.071068e-01	 2.625000e+00
-7.071068e-01	 -7.071068e-01	 3.000000e+00
-7.071068e-01	 7.071068e-01	 0
-7.071068e-01	 7.071068e-01	 3.750000e-01
-7.071068e-01	 7.071068e-01	 7.500000e-01
-7.071068e-01	 7.071068e-01	 1.125000e+00
-7.071068e-01	 7.071068e-01	 1.500000e+00
-7.071068e-01	 7.071068e-01	 1.875000e+00
-7.071068e-01	 7.071068e-01	 2.250000e+00
-7.071068e-01	 7.071068e-01	 2.625000e+00
-7.071068e-01	 7.071068e-01	 3.000000e+00
-6.982679e-01	 -6.982679e-01	 7.500000e-01
-6.982679e-01	 6.982679e-01	 7.500000e-01
-6.982679e-01	 -6.982679e-01	 0
-6.982679e-01	 -6.982679e-01	 2.250000e+00
-6.982679e-01	 -6.982679e-01	 3.000000e+00
-6.982679e-01	 6.982679e-01	 0
-6.982679e-01	 6.982679e-01	 2.250000e+00
-6.982679e-01	 6.982679e-01	 3.000000e+00
-6.982679e-01	 -6.982679e-01	 1.500000e+00
-6.982679e-01	 6.982679e-01	 1.500000e+00
-6.894291e-01	 -6.894291e-01	 3.750000e-01
-6.894291e-01	 -6.894291e-01	 2.625000e+00
-6.894291e-01	 -6.894291e-01	 0
-6.894291e-01	 -6.894291e-01	 1.500000e+00
-6.894291e-01	 -6.894291e-01	 2.250000e+00
-6.894291e-01	 -6.894291e-01	 3.000000e+00
-6.894291e-01	 6.894291e-01	 3.750000e-01
-6.894291e-01	 6.894291e-01	 2.625000e+00
-6.894291e-01	 -6.894291e-01	 1.875000e+00
-6.894291e-01	 6.894291e-01	 1.875000e+00
-6.894291e-01	 -6.894291e-01	 7.500000e-01
-6.894291e-01	 -6.894291e-01	 1.125000e+00
-6.894291e-01	 6.894291e-01	 0
-6.894291e-01	 6.894291e-01	 1.500000e+00
-6.894291e-01	 6.894291e-01	 2.250000e+00
-6.894291e-01	 6.894291e-01	 3.000000e+00
-6.894291e-01	 6.894291e-01	 7.500000e-01
-6.894291e-01	 6.894291e-01	 1.125000e+00
-6.805903e-01	 6.805903e-01	 7.500000e-01
-6.805903e-01	 -6.805903e-01	 7.500000e-01
-6.805903e-01	 -6.805903e-01	 0
-6.805903e-01	 -6.805903e-01	 1.500000e+00
-6.805903e-01	 -6.805903e-01	 3.000000e+00
-6.805903e-01	 6.805903e-01	 0
-6.805903e-01	 6.805903e-01	 1.500000e+00
-6.805903e-01	 6.805903e-01	 3.000000e+00
-6.805903e-01	 6.805903e-01	 2.250000e+00
-6.805903e-01	 -6.805903e-01	 2.250000e+00
-6.717514e-01	 -6.717514e-01	 2.625000e+00
-6.717514e-01	 6.717514e-01	 2.625000e+00
-6.717514e-01	 -6.717514e-01	 0
-6.717514e-01	 -6.717514e-01	 3.750000e-01
-6.717514e-01	 -6.717514e-01	 7.500000e-01
-6.717514e-01	 -6.717514e-01	 1.125000e+00
-6.717514e-01	 -6.717514e-01	 1.875000e+00
-6.717514e-01	 -6.717514e-01	 3.000000e+00
-6.717514e-01	 -6.717514e-01	 2.250000e+00
-6.717514e-01	 6.717514e-01	 1.500000e+00
-6.717514e-01	 6.717514e-01	 0
-6.717514e-01	 6.717514e-01	 3.750000e-01
-6.717514e-01	 6.717514e-01	 7.500000e-01
-6.717514e-01	 6.717514e-01	 1.125000e+00
-6.717514e-01	 6.717514e-01	 1.875000e+00
-6.717514e-01	 6.717514e-01	 3.000000e+00
-6.717514e-01	 -6.717514e-01	 1.500000e+00
-6.717514e-01	 6.717514e-01	 2.250000e+00
-5.472098e-01	 -8.369955e-01	 0
-5.472098e-01	 -8.369955e-01	 7.500000e-01
-5.472098e-01	 -8.369955e-01	 1.500000e+00
-5.472098e-01	 -8.369955e-01	 2.250000e+00
-5.472098e-01	 -8.369955e-01	 3
-5.472098e-01	 8.369955e-01	 0
-5.472098e-01	 8.369955e-01	 7.500000e-01
-5.472098e-01	 8.369955e-01	 1.500000e+00
-5.472098e-01	 8.369955e-01	 2.250000e+00
-5.472098e-01	 8.369955e-01	 3
-5.335295e-01	 -8.160706e-01	 1.500000e+00
-5.335295e-01	 -8.160706e-01	 2.250000e+00
-5.335295e-01	 8.160706e-01	 0
-5.335295e-01	 8.160706e-01	 3.000000e+00
[...]
POINT_DATA 832
VECTORS displacement float
0	 0	 -5.636519e-11
-3.280220e-10	 -4.159344e-03	 -4.795261e-11
-5.882483e-10	 -7.733827e-03	 -2.887446e-11
-7.647326e-10	 -1.004154e-02	 -2.025888e-12
-8.140231e-10	 -1.093728e-02	 2.850341e-11
-7.636618e-10	 -1.004154e-02	 5.841369e-11
-5.895237e-10	 -7.733827e-03	 8.458026e-11
-3.311862e-10	 -4.159344e-03	 1.033481e-10
0	 0	 1.113800e-10
0	 0	 -4.475860e-11
-8.162509e-10	 -1.510941e-02	 2.843995e-11
0	 0	 9.961705e-11
-5.912006e-10	 -1.068397e-02	 7.723589e-11
-5.898982e-10	 -1.068397e-02	 -2.139317e-11
-3.405669e-02	 -1.263305e-02	 -3.040229e-03
0	 0	 -4.299533e-03
-4.816343e-02	 -1.786583e-02	 2.890328e-11
0	 0	 4.299533e-03
3.405669e-02	 -1.263305e-02	 -3.040229e-03
0	 0	 4.299533e-03
4.816343e-02	 -1.786583e-02	 2.798473e-11
0	 0	 -4.299533e-03
3.405669e-02	 -1.263305e-02	 3.040229e-03
-3.405669e-02	 -1.263305e-02	 3.040229e-03
-5.907893e-10	 -1.360673e-02	 -1.397153e-11
-7.672413e-10	 -1.769482e-02	 5.560524e-12
0	 0	 -3.323995e-11
-3.291450e-10	 -7.329434e-03	 -2.807353e-11
-7.661671e-10	 -1.769482e-02	 5.089760e-11
-3.322844e-10	 -7.329434e-03	 8.339303e-11
0	 0	 8.794711e-11
-8.174309e-10	 -1.924282e-02	 2.837436e-11
-5.921012e-10	 -1.360673e-02	 6.995004e-11
-8.182601e-10	 -2.334123e-02	 2.831230e-11
-5.927577e-10	 -1.650474e-02	 6.264768e-11
0	 0	 -2.169427e-11
-5.914309e-10	 -1.650474e-02	 -6.529502e-12
0	 0	 7.625312e-11
0	 0	 -2.956229e-03
0	 0	 2.956229e-03
-4.736828e-02	 -2.251524e-02	 2.879715e-11
0	 0	 2.956229e-03
0	 0	 -2.956229e-03
4.736828e-02	 -2.251524e-02	 2.791899e-11
3.349443e-02	 -1.592068e-02	 2.090370e-03
-3.349443e-02	 -1.592068e-02	 -2.090370e-03
-3.349443e-02	 -1.592068e-02	 2.090370e-03
3.349443e-02	 -1.592068e-02	 -2.090370e-03
0	 0	 -1.005501e-11
-3.290390e-10	 -1.047562e-02	 -8.130642e-12
-7.668887e-10	 -2.529038e-02	 1.317137e-11
-8.178321e-10	 -2.748126e-02	 2.825117e-11
-7.658092e-10	 -2.529038e-02	 4.336398e-11
-5.924870e-10	 -1.943218e-02	 5.528824e-11
-3.321119e-10	 -1.047562e-02	 6.338017e-11
0	 0	 6.446041e-11
-5.911703e-10	 -1.943218e-02	 9.708207e-13
-4.629609e-02	 -2.715221e-02	 2.869529e-11
0	 0	 -1.614576e-03
0	 0	 1.614576e-03
3.273628e-02	 -1.919951e-02	 -1.141678e-03
0	 0	 1.614576e-03
4.629609e-02	 -2.715221e-02	 2.785248e-11
0	 0	 -1.614576e-03
-3.273628e-02	 -1.919951e-02	 -1.141678e-03
-3.273628e-02	 -1.919951e-02	 1.141678e-03
3.273628e-02	 -1.919951e-02	 1.141678e-03
-6.175948e-02	 -2.527662e-02	 -2.300840e-03
0	 0	 -6.080277e-03
-4.667299e-02	 -1.907250e-02	 -4.299405e-03
-6.600558e-02	 -2.697258e-02	 2.947048e-11
-6.175948e-02	 -2.527662e-02	 2.300840e-03
-4.667299e-02	 -1.907250e-02	 4.299405e-03
-2.558161e-02	 -1.046992e-02	 5.554718e-03
0	 0	 6.080277e-03
-2.558161e-02	 -1.046992e-02	 -5.554718e-03
2.558161e-02	 -1.046992e-02	 5.554718e-03
4.667299e-02	 -1.907250e-02	 -4.299405e-03
2.558161e-02	 -1.046992e-02	 -5.554718e-03
0	 0	 6.080277e-03
4.667299e-02	 -1.907250e-02	 4.299405e-03
6.600558e-02	 -2.697258e-02	 2.804028e-11
6.175948e-02	 -2.527662e-02	 -2.300840e-03
0	 0	 -6.080277e-03
6.175948e-02	 -2.527662e-02	 2.300840e-03
4.674991e-02	 -1.926087e-02	 3.617149e-03
0	 0	 -5.115422e-03
-4.674991e-02	 -1.926087e-02	 -3.617149e-03
-4.674991e-02	 -1.926087e-02	 3.617149e-03
0	 0	 5.115422e-03
0	 0	 5.115422e-03
4.674991e-02	 -1.926087e-02	 -3.617149e-03
0	 0	 -5.115422e-03
-6.611435e-02	 -2.723899e-02	 2.945554e-11
6.611435e-02	 -2.723899e-02	 2.788808e-11
-6.183166e-02	 -2.567910e-02	 -1.595119e-03
-2.561151e-02	 -1.063663e-02	 3.850959e-03
0	 0	 -4.157915e-03
-2.561151e-02	 -1.063663e-02	 -3.850959e-03
-6.613800e-02	 -2.747121e-02	 2.944152e-11
0	 0	 4.157915e-03
2.561151e-02	 -1.063663e-02	 -3.850959e-03
6.183166e-02	 -2.567910e-02	 1.595119e-03
0	 0	 4.157915e-03
2.561151e-02	 -1.063663e-02	 3.850959e-03
0	 0	 -4.157915e-03
-4.676663e-02	 -1.942508e-02	 -2.940090e-03
-6.183166e-02	 -2.567910e-02	 1.595119e-03
6.183166e-02	 -2.567910e-02	 -1.595119e-03
6.613800e-02	 -2.747121e-02	 2.773620e-11
-4.676663e-02	 -1.942508e-02	 2.940090e-03
4.676663e-02	 -1.942508e-02	 2.940090e-03
4.676663e-02	 -1.942508e-02	 -2.940090e-03
6.614523e-02	 -2.770033e-02	 2.758604e-11
-6.614523e-02	 -2.770033e-02	 2.942805e-11
0	 0	 -3.198750e-03
0	 0	 3.198750e-03
0	 0	 3.198750e-03
0	 0	 -3.198750e-03
-4.677174e-02	 -1.958709e-02	 2.261858e-03
-4.677174e-02	 -1.958709e-02	 -2.261858e-03
4.677174e-02	 -1.958709e-02	 -2.261858e-03
4.677174e-02	 -1.958709e-02	 2.261858e-03
-6.169013e-02	 -2.600100e-02	 -8.875070e-04
-6.169013e-02	 -2.600100e-02	 8.875071e-04
-2.555289e-02	 -1.076997e-02	 2.142632e-03
-4.670419e-02	 -1.971841e-02	 1.578105e-03
6.169013e-02	 -2.600100e-02	 8.875070e-04
0	 0	 -2.231777e-03
0	 0	 2.231777e-03
-2.555289e-02	 -1.076997e-02	 -2.142631e-03
-4.670419e-02	 -1.971841e-02	 -1.578105e-03
2.555289e-02	 -1.076997e-02	 2.142632e-03
4.670419e-02	 -1.971841e-02	 1.578105e-03
4.670419e-02	 -1.971841e-02	 -1.578105e-03
2.555289e-02	 -1.076997e-02	 -2.142631e-03
0	 0	 2.231777e-03
6.169013e-02	 -2.600100e-02	 -8.875070e-04
0	 0	 -2.231777e-03
-6.604970e-02	 -2.788605e-02	 2.941576e-11
6.604970e-02	 -2.788605e-02	 2.743432e-11
0	 0	 -4.758087e-03
-3.532560e-02	 -1.639167e-02	 -3.364475e-03
-4.995794e-02	 -2.318132e-02	 3.003100e-11
-3.532560e-02	 -1.639167e-02	 3.364476e-03
0	 0	 4.758087e-03
0	 0	 4.758087e-03
3.532560e-02	 -1.639167e-02	 3.364476e-03
4.995794e-02	 -2.318132e-02	 2.816509e-11
3.532560e-02	 -1.639167e-02	 -3.364476e-03
0	 0	 -4.758087e-03
-3.703486e-02	 -1.385342e-02	 -2.342401e-03
3.703486e-02	 -1.385342e-02	 2.342401e-03
-5.237520e-02	 -1.959169e-02	 2.995577e-11
-3.703486e-02	 -1.385342e-02	 2.342401e-03
5.237520e-02	 -1.959169e-02	 2.758673e-11
3.703486e-02	 -1.385342e-02	 -2.342401e-03
0	 0	 -3.312656e-03
0	 0	 3.312656e-03
0	 0	 3.312656e-03
0	 0	 -3.312656e-03
-3.859871e-02	 -1.118648e-02	 -1.322257e-03
3.859871e-02	 -1.118648e-02	 1.322257e-03
0	 0	 -1.869953e-03
-5.458682e-02	 -1.582008e-02	 2.988935e-11
-3.859871e-02	 -1.118648e-02	 1.322257e-03
0	 0	 1.869954e-03
0	 0	 1.869954e-03
5.458682e-02	 -1.582008e-02	 2.701373e-11
3.859871e-02	 -1.118648e-02	 -1.322257e-03
0	 0	 -1.869954e-03
0	 0	 6.225748e-11
-2.974208e-03	 2.974209e-03	 5.794887e-11
-5.509093e-03	 5.509093e-03	 4.982807e-11
-7.180375e-03	 7.180375e-03	 4.017012e-11
-7.791034e-03	 7.791035e-03	 2.987889e-11
-7.180375e-03	 7.180375e-03	 1.946681e-11
-5.509093e-03	 5.509093e-03	 9.944501e-12
-2.974208e-03	 2.974209e-03	 1.326298e-12
0	 0	 -3.541548e-12
0	 0	 9.693593e-11
2.974209e-03	 2.974208e-03	 9.171452e-11
5.509093e-03	 5.509093e-03	 7.859866e-11
7.180375e-03	 7.180374e-03	 5.559219e-11
7.791035e-03	 7.791034e-03	 2.735855e-11
7.180375e-03	 7.180374e-03	 -2.758548e-12
5.509094e-03	 5.509093e-03	 -2.874963e-11
2.974209e-03	 2.974208e-03	 -4.414705e-11
0	 0	 -5.045500e-11
-7.521558e-03	 7.521559e-03	 4.493810e-11
7.521559e-03	 7.521558e-03	 7.080822e-11
0	 0	 5.371783e-11
-7.521558e-03	 7.521559e-03	 1.465549e-11
0	 0	 5.307695e-12
0	 0	 8.718300e-11
7.521559e-03	 7.521558e-03	 -2.096329e-11
0	 0	 -3.999870e-11
-1.063709e-02	 1.063709e-02	 2.989707e-11
1.063709e-02	 1.063709e-02	 2.701254e-11
-5.123215e-03	 5.123215e-03	 4.385142e-11
-5.123215e-03	 5.123215e-03	 1.551897e-11
0	 0	 4.524607e-11
-1.345849e-02	 1.345849e-02	 2.991522e-11
-9.516590e-03	 9.516591e-03	 1.932556e-11
0	 0	 1.408940e-11
5.123215e-03	 5.123215e-03	 7.386847e-11
5.123215e-03	 5.123215e-03	 -2.546214e-11
-1.236853e-02	 1.236854e-02	 2.423394e-11
1.236854e-02	 1.236853e-02	 5.249019e-12
-9.516590e-03	 9.516591e-03	 4.008876e-11
-1.236853e-02	 1.236854e-02	 3.530123e-11
0	 0	 7.749119e-11
1.345849e-02	 1.345849e-02	 2.666824e-11
9.516591e-03	 9.516590e-03	 -1.322731e-11
0	 0	 -2.961068e-11
9.516591e-03	 9.516590e-03	 6.307048e-11
1.236854e-02	 1.236853e-02	 4.674751e-11
1.149446e-02	 1.149446e-02	 5.532378e-11
-1.149446e-02	 1.149446e-02	 3.523497e-11
0	 0	 3.676095e-11
-1.625562e-02	 1.625562e-02	 2.993600e-11
0	 0	 2.288096e-11
0	 0	 6.778546e-11
1.625562e-02	 1.625562e-02	 2.632456e-11
0	 0	 -1.921156e-11
1.149446e-02	 1.149446e-02	 -5.479562e-12
-1.149446e-02	 1.149446e-02	 2.400537e-11
-7.255217e-03	 7.255217e-03	 2.975005e-11
7.255217e-03	 7.255217e-03	 -6.726489e-12
0	 0	 2.820311e-11
-7.255217e-03	 7.255217e-03	 2.972137e-11
-1.348915e-02	 1.348915e-02	 3.034182e-11
-1.751564e-02	 1.751564e-02	 3.042436e-11
-1.751564e-02	 1.751564e-02	 2.900992e-11
0	 0	 3.175190e-11
-1.348915e-02	 1.348915e-02	 2.872455e-11
1.907654e-02	 1.907654e-02	 2.597691e-11
0	 0	 5.801445e-11
7.255217e-03	 7.255217e-03	 5.598048e-11
1.348915e-02	 1.348915e-02	 4.751513e-11
1.751564e-02	 1.751564e-02	 3.788141e-11
1.751564e-02	 1.751564e-02	 1.327739e-11
0	 0	 -8.736467e-12
-1.907654e-02	 1.907654e-02	 2.995541e-11
1.348915e-02	 1.348915e-02	 2.325942e-12
0	 0	 4.758087e-03
1.639167e-02	 3.532560e-02	 3.364476e-03
2.318132e-02	 4.995794e-02	 2.938833e-11
1.639167e-02	 3.532560e-02	 -3.364476e-03
0	 0	 -4.758087e-03
0	 0	 -4.758087e-03
-1.639167e-02	 3.532560e-02	 -3.364475e-03
-2.318132e-02	 4.995794e-02	 2.559953e-11
-1.639167e-02	 3.532560e-02	 3.364476e-03
0	 0	 4.758087e-03
1.959169e-02	 5.237520e-02	 2.957008e-11
1.385342e-02	 3.703486e-02	 -2.342401e-03
0	 0	 -3.312656e-03
0	 0	 3.312656e-03
-1.959169e-02	 5.237520e-02	 2.517361e-11
-1.385342e-02	 3.703486e-02	 2.342401e-03
1.385342e-02	 3.703486e-02	 2.342401e-03
0	 0	 3.312656e-03
0	 0	 -3.312656e-03
-1.385342e-02	 3.703486e-02	 -2.342401e-03
-1.118648e-02	 3.859871e-02	 -1.322257e-03
1.118648e-02	 3.859871e-02	 1.322257e-03
0	 0	 1.869954e-03
1.582008e-02	 5.458682e-02	 2.975705e-11
1.118648e-02	 3.859871e-02	 -1.322257e-03
0	 0	 -1.869953e-03
0	 0	 -1.869953e-03
-1.582008e-02	 5.458682e-02	 2.475189e-11
-1.118648e-02	 3.859871e-02	 1.322257e-03
0	 0	 1.869954e-03
2.527662e-02	 6.175948e-02	 2.300840e-03
-2.527662e-02	 6.175948e-02	 -2.300840e-03
0	 0	 6.080277e-03
1.907250e-02	 4.667299e-02	 4.299405e-03
2.697258e-02	 6.600558e-02	 2.890870e-11
2.527662e-02	 6.175948e-02	 -2.300840e-03
0	 0	 -6.080277e-03
0	 0	 -6.080277e-03
-1.907250e-02	 4.667299e-02	 -4.299405e-03
-2.697258e-02	 6.600558e-02	 2.199885e-11
-2.527662e-02	 6.175948e-02	 2.300840e-03
-1.907250e-02	 4.667299e-02	 4.299405e-03
-1.046992e-02	 2.558161e-02	 5.554718e-03
0	 0	 6.080277e-03
1.046992e-02	 2.558161e-02	 5.554718e-03
1.907250e-02	 4.667299e-02	 -4.299405e-03
1.046992e-02	 2.558161e-02	 -5.554718e-03
-1.046992e-02	 2.558161e-02	 -5.554718e-03
2.723899e-02	 6.611435e-02	 2.905527e-11
-2.723899e-02	 6.611435e-02	 2.223020e-11
1.926087e-02	 4.674991e-02	 3.617149e-03
0	 0	 5.115422e-03
1.926087e-02	 4.674991e-02	 -3.617149e-03
0	 0	 -5.115422e-03
0	 0	 -5.115422e-03
-1.926087e-02	 4.674991e-02	 -3.617149e-03
-1.926087e-02	 4.674991e-02	 3.617149e-03
0	 0	 5.115422e-03
1.942508e-02	 4.676663e-02	 -2.940090e-03
-1.942508e-02	 4.676663e-02	 2.940090e-03
-2.567910e-02	 6.183166e-02	 -1.595119e-03
-1.063663e-02	 2.561151e-02	 3.850959e-03
0	 0	 4.157915e-03
1.063663e-02	 2.561151e-02	 3.850959e-03
0	 0	 -4.157915e-03
2.747121e-02	 6.613800e-02	 2.920053e-11
0	 0	 -4.157915e-03
-1.063663e-02	 2.561151e-02	 -3.850958e-03
-2.747121e-02	 6.613800e-02	 2.246598e-11
0	 0	 4.157915e-03
2.567910e-02	 6.183166e-02	 1.595119e-03
2.567910e-02	 6.183166e-02	 -1.595119e-03
1.942508e-02	 4.676663e-02	 2.940090e-03
-1.942508e-02	 4.676663e-02	 -2.940090e-03
-2.567910e-02	 6.183166e-02	 1.595119e-03
1.063663e-02	 2.561151e-02	 -3.850958e-03
2.770033e-02	 6.614523e-02	 2.934820e-11
1.958709e-02	 4.677174e-02	 -2.261858e-03
-1.958709e-02	 4.677174e-02	 2.261858e-03
0	 0	 -3.198750e-03
0	 0	 3.198750e-03
-2.770033e-02	 6.614523e-02	 2.270256e-11
0	 0	 3.198750e-03
0	 0	 -3.198750e-03
1.958709e-02	 4.677174e-02	 2.261858e-03
-1.958709e-02	 4.677174e-02	 -2.261858e-03
2.600100e-02	 6.169013e-02	 8.875070e-04
0	 0	 2.231777e-03
2.600100e-02	 6.169013e-02	 -8.875070e-04
0	 0	 -2.231777e-03
2.788605e-02	 6.604970e-02	 2.949811e-11
0	 0	 -2.231777e-03
0	 0	 2.231777e-03
-2.600100e-02	 6.169013e-02	 -8.875070e-04
-2.600100e-02	 6.169013e-02	 8.875070e-04
-1.076997e-02	 2.555289e-02	 2.142631e-03
1.076997e-02	 2.555289e-02	 2.142631e-03
1.971841e-02	 4.670419e-02	 1.578105e-03
1.971841e-02	 4.670419e-02	 -1.578105e-03
1.076997e-02	 2.555289e-02	 -2.142631e-03
-2.788605e-02	 6.604970e-02	 2.293816e-11
-1.076997e-02	 2.555289e-02	 -2.142631e-03
-1.971841e-02	 4.670419e-02	 1.578105e-03
-1.971841e-02	 4.670419e-02	 -1.578105e-03
1.263305e-02	 3.405669e-02	 3.040229e-03
-1.263305e-02	 3.405669e-02	 -3.040229e-03
0	 0	 4.299533e-03
1.786583e-02	 4.816343e-02	 2.835271e-11
0	 0	 -4.299533e-03
0	 0	 -4.299533e-03
-1.786583e-02	 4.816343e-02	 1.832276e-11
0	 0	 4.299533e-03
1.263305e-02	 3.405669e-02	 -3.040229e-03
-1.263305e-02	 3.405669e-02	 3.040229e-03
1.592068e-02	 3.349443e-02	 2.090370e-03
0	 0	 2.956229e-03
0	 0	 -2.956229e-03
-1.592068e-02	 3.349443e-02	 -2.090370e-03
-1.592068e-02	 3.349443e-02	 2.090370e-03
0	 0	 -2.956229e-03
0	 0	 2.956229e-03
1.592068e-02	 3.349443e-02	 -2.090370e-03
-2.251524e-02	 4.736828e-02	 1.982632e-11
2.251524e-02	 4.736828e-02	 2.873957e-11
-2.715221e-02	 4.629609e-02	 2.133197e-11
0	 0	 1.614576e-03
2.715221e-02	 4.629609e-02	 2.912721e-11
0	 0	 -1.614576e-03
0	 0	 -1.614576e-03
0	 0	 1.614576e-03
1.919951e-02	 3.273628e-02	 -1.141678e-03
1.919951e-02	 3.273628e-02	 1.141678e-03
-1.919951e-02	 3.273628e-02	 -1.141678e-03
-1.919951e-02	 3.273628e-02	 1.141678e-03
0	 0	 -3.891803e-11
4.159344e-03	 -2.629262e-10	 -3.369300e-11
7.733827e-03	 -4.893264e-10	 -1.992009e-11
1.004154e-02	 -6.554750e-10	 2.201213e-12
1.093728e-02	 -7.075069e-10	 2.815154e-11
1.004154e-02	 -6.640168e-10	 5.503598e-11
7.733827e-03	 -5.004146e-10	 7.838113e-11
4.159344e-03	 -2.729754e-10	 9.371643e-11
0	 0	 1.001147e-10
0	 0	 -2.990887e-11
1.510941e-02	 -7.095655e-10	 2.833115e-11
0	 0	 9.064709e-11
1.068397e-02	 -5.018960e-10	 7.151523e-11
1.068397e-02	 -4.907329e-10	 -1.300461e-11
1.360673e-02	 -4.914802e-10	 -6.143848e-12
1.769482e-02	 -6.577620e-10	 9.588715e-12
0	 0	 -2.097111e-11
7.329434e-03	 -2.637715e-10	 -1.717480e-11
1.769482e-02	 -6.663258e-10	 4.803845e-11
7.329434e-03	 -2.738694e-10	 7.680559e-11
0	 0	 8.125924e-11
1.924282e-02	 -7.106734e-10	 2.851014e-11
1.360673e-02	 -5.026894e-10	 6.470256e-11
2.334123e-02	 -7.114819e-10	 2.869198e-11
1.650474e-02	 -5.032817e-10	 5.787218e-11
0	 0	 -1.201063e-11
1.650474e-02	 -4.920108e-10	 7.361095e-13
0	 0	 7.184849e-11
0	 0	 -2.979971e-12
1.047562e-02	 -2.635886e-10	 -5.993838e-13
2.529038e-02	 -6.575085e-10	 1.700313e-11
2.748126e-02	 -7.111537e-10	 2.887362e-11
2.529038e-02	 -6.660591e-10	 4.102144e-11
1.943218e-02	 -5.030560e-10	 5.098573e-11
1.047562e-02	 -2.736852e-10	 5.984337e-11
0	 0	 6.235923e-11
1.943218e-02	 -4.917547e-10	 7.674968e-12
-1.943218e-02	 3.456227e-10	 2.268666e-11
0	 0	 2.253530e-11
-1.047562e-02	 1.745532e-10	 2.251282e-11
-2.529038e-02	 4.944640e-10	 2.124019e-11
-2.748126e-02	 5.650827e-10	 2.071503e-11
-2.529038e-02	 5.478370e-10	 2.095218e-11
-1.943218e-02	 4.187330e-10	 2.234651e-11
-1.047562e-02	 2.295641e-10	 2.509989e-11
0	 0	 2.579883e-11
0	 0	 1.683917e-11
-1.650474e-02	 3.460947e-10	 1.703796e-11
0	 0	 3.370690e-11
-2.334123e-02	 5.656328e-10	 1.966254e-11
-1.650474e-02	 4.191274e-10	 2.793402e-11
-1.924282e-02	 5.650377e-10	 1.862193e-11
-1.360673e-02	 4.186641e-10	 3.346513e-11
0	 0	 1.120011e-11
-7.329434e-03	 1.748664e-10	 1.094888e-11
-1.769482e-02	 5.485532e-10	 2.595600e-11
-7.329434e-03	 2.299184e-10	 3.929382e-11
0	 0	 4.153864e-11
-1.360673e-02	 3.458494e-10	 1.144869e-11
-1.769482e-02	 4.951797e-10	 1.358637e-11
-1.068397e-02	 3.454095e-10	 5.875133e-12
-1.068397e-02	 4.179925e-10	 3.897952e-11
0	 0	 5.577730e-12
-1.510941e-02	 5.641493e-10	 1.758557e-11
0	 0	 4.934762e-11
0	 0	 -1.091892e-13
-4.159344e-03	 1.743095e-10	 -5.756106e-13
-7.733827e-03	 3.443706e-10	 2.454578e-13
-1.004154e-02	 4.934684e-10	 5.963294e-12
-1.093728e-02	 5.622935e-10	 1.654318e-11
-1.004154e-02	 5.466232e-10	 3.094963e-11
-7.733827e-03	 4.166045e-10	 4.455631e-11
-4.159344e-03	 2.291470e-10	 5.344526e-11
0	 0	 5.724368e-11
1.919951e-02	 -3.273628e-02	 -1.141678e-03
1.919951e-02	 -3.273628e-02	 1.141678e-03
-1.919951e-02	 -3.273628e-02	 1.141678e-03
-1.919951e-02	 -3.273628e-02	 -1.141678e-03
0	 0	 -1.614576e-03
0	 0	 1.614576e-03
0	 0	 1.614576e-03
-2.715221e-02	 -4.629609e-02	 2.044062e-11
0	 0	 -1.614576e-03
2.715221e-02	 -4.629609e-02	 2.864948e-11
-2.251524e-02	 -4.736828e-02	 1.849168e-11
2.251524e-02	 -4.736828e-02	 2.855953e-11
-1.592068e-02	 -3.349443e-02	 -2.090370e-03
0	 0	 -2.956229e-03
0	 0	 2.956229e-03
1.592068e-02	 -3.349443e-02	 -2.090370e-03
1.592068e-02	 -3.349443e-02	 2.090370e-03
0	 0	 2.956229e-03
0	 0	 -2.956229e-03
-1.592068e-02	 -3.349443e-02	 2.090370e-03
1.263305e-02	 -3.405669e-02	 3.040229e-03
-1.263305e-02	 -3.405669e-02	 -3.040229e-03
0	 0	 -4.299533e-03
1.786583e-02	 -4.816343e-02	 2.847123e-11
0	 0	 4.299533e-03
0	 0	 4.299533e-03
-1.786583e-02	 -4.816343e-02	 1.654583e-11
0	 0	 -4.299533e-03
1.263305e-02	 -3.405669e-02	 -3.040229e-03
-1.263305e-02	 -3.405669e-02	 3.040229e-03
1.971841e-02	 -4.670419e-02	 -1.578105e-03
1.971841e-02	 -4.670419e-02	 1.578105e-03
1.076997e-02	 -2.555289e-02	 -2.142631e-03
2.788605e-02	 -6.604970e-02	 2.860018e-11
-1.076997e-02	 -2.555289e-02	 2.142632e-03
-1.971841e-02	 -4.670419e-02	 1.578105e-03
-1.971841e-02	 -4.670419e-02	 -1.578105e-03
-1.076997e-02	 -2.555289e-02	 -2.142631e-03
2.600100e-02	 -6.169013e-02	 -8.875070e-04
2.600100e-02	 -6.169013e-02	 8.875071e-04
1.076997e-02	 -2.555289e-02	 2.142632e-03
0	 0	 -2.231777e-03
0	 0	 2.231777e-03
-2.788605e-02	 -6.604970e-02	 2.122372e-11
0	 0	 2.231777e-03
-2.600100e-02	 -6.169013e-02	 -8.875070e-04
0	 0	 -2.231777e-03
-2.600100e-02	 -6.169013e-02	 8.875070e-04
1.958709e-02	 -4.677174e-02	 -2.261858e-03
-1.958709e-02	 -4.677174e-02	 2.261858e-03
0	 0	 3.198750e-03
0	 0	 -3.198750e-03
2.770033e-02	 -6.614523e-02	 2.883578e-11
0	 0	 -3.198750e-03
0	 0	 3.198750e-03
1.958709e-02	 -4.677174e-02	 2.261858e-03
-1.958709e-02	 -4.677174e-02	 -2.261858e-03
-2.770033e-02	 -6.614523e-02	 2.093514e-11
-1.063663e-02	 -2.561151e-02	 -3.850959e-03
1.942508e-02	 -4.676663e-02	 -2.940090e-03
2.567910e-02	 -6.183166e-02	 1.595119e-03
-1.942508e-02	 -4.676663e-02	 2.940090e-03
-2.567910e-02	 -6.183166e-02	 -1.595119e-03
-2.567910e-02	 -6.183166e-02	 1.595119e-03
0	 0	 -4.157915e-03
1.063663e-02	 -2.561151e-02	 -3.850959e-03
2.747121e-02	 -6.613800e-02	 2.907397e-11
0	 0	 4.157915e-03
-2.747121e-02	 -6.613800e-02	 2.065421e-11
0	 0	 4.157915e-03
-1.063663e-02	 -2.561151e-02	 3.850959e-03
0	 0	 -4.157915e-03
2.567910e-02	 -6.183166e-02	 -1.595119e-03
1.063663e-02	 -2.561151e-02	 3.850959e-03
1.942508e-02	 -4.676663e-02	 2.940090e-03
-1.942508e-02	 -4.676663e-02	 -2.940090e-03
0	 0	 -5.115422e-03
1.926087e-02	 -4.674991e-02	 -3.617149e-03
1.926087e-02	 -4.674991e-02	 3.617149e-03
0	 0	 5.115422e-03
0	 0	 5.115422e-03
-1.926087e-02	 -4.674991e-02	 -3.617149e-03
0	 0	 -5.115422e-03
-1.926087e-02	 -4.674991e-02	 3.617149e-03
2.723899e-02	 -6.611435e-02	 2.930937e-11
-2.723899e-02	 -6.611435e-02	 2.037426e-11
1.046992e-02	 -2.558161e-02	 -5.554718e-03
-1.046992e-02	 -2.558161e-02	 5.554718e-03
-1.907250e-02	 -4.667299e-02	 -4.299405e-03
-1.046992e-02	 -2.558161e-02	 -5.554718e-03
0	 0	 -6.080277e-03
1.907250e-02	 -4.667299e-02	 -4.299405e-03
2.697258e-02	 -6.600558e-02	 2.954265e-11
2.527662e-02	 -6.175948e-02	 2.300840e-03
1.907250e-02	 -4.667299e-02	 4.299405e-03
1.046992e-02	 -2.558161e-02	 5.554718e-03
0	 0	 6.080277e-03
0	 0	 6.080277e-03
-1.907250e-02	 -4.667299e-02	 4.299405e-03
-2.697258e-02	 -6.600558e-02	 2.009036e-11
-2.527662e-02	 -6.175948e-02	 -2.300840e-03
0	 0	 -6.080277e-03
2.527662e-02	 -6.175948e-02	 -2.300840e-03
-2.527662e-02	 -6.175948e-02	 2.300840e-03
0	 0	 -1.869953e-03
1.582008e-02	 -5.458682e-02	 2.831937e-11
1.118648e-02	 -3.859871e-02	 1.322257e-03
0	 0	 1.869954e-03
0	 0	 1.869954e-03
-1.582008e-02	 -5.458682e-02	 2.274309e-11
-1.118648e-02	 -3.859871e-02	 -1.322257e-03