# vtk DataFile Version 3.0
Unstructured Grid Example
ASCII
DATASET UNSTRUCTURED_GRID
POINTS 832 float
-1	 0	 0
-1	 0	 3.750000e-01
-1	 0	 7.500000e-01
-1	 0	 1.125000e+00
-1	 0	 1.500000e+00
-1	 0	 1.875000e+00
-1	 0	 2.250000e+00
-1	 0	 2.625000e+00
-1	 0	 3
-9.875000e-01	 0	 0
-9.875000e-01	 0	 1.500000e+00
-9.875000e-01	 0	 3
-9.875000e-01	 0	 2.250000e+00
-9.875000e-01	 0	 7.500000e-01
-9.833054e-01	 -1.819631e-01	 7.500000e-01
-9.833054e-01	 -1.819631e-01	 0
-9.833054e-01	 -1.819631e-01	 1.500000e+00
-9.833054e-01	 -1.819631e-01	 3.000000e+00
-9.833054e-01	 1.819631e-01	 2.250000e+00
-9.833054e-01	 1.819631e-01	 0
-9.833054e-01	 1.819631e-01	 1.500000e+00
-9.833054e-01	 1.819631e-01	 3.000000e+00
-9.833054e-01	 1.819631e-01	 7.500000e-01
-9.833054e-01	 -1.819631e-01	 2.250000e+00
-9.750000e-01	 0	 7.500000e-01
-9.750000e-01	 0	 1.125000e+00
-9.750000e-01	 0	 0
-9.750000e-01	 0	 3.750000e-01
-9.750000e-01	 0	 1.875000e+00
-9.750000e-01	 0	 2.625000e+00
-9.750000e-01	 0	 3
-9.750000e-01	 0	 1.500000e+00
-9.750000e-01	 0	 2.250000e+00
-9.625000e-01	 0	 1.500000e+00
-9.625000e-01	 0	 2.250000e+00
-9.625000e-01	 0	 0
-9.625000e-01	 0	 7.500000e-01
-9.625000e-01	 0	 3
-9.587227e-01	 -1.774140e-01	 0
-9.587227e-01	 -1.774140e-01	 3.000000e+00
-9.587227e-01	 -1.774140e-01	 1.500000e+00
-9.587227e-01	 1.774140e-01	 0
-9.587227e-01	 1.774140e-01	 3.000000e+00
-9.587227e-01	 1.774140e-01	 1.500000e+00
-9.587227e-01	 1.774140e-01	 7.500000e-01
-9.587227e-01	 -1.774140e-01	 7.500000e-01
-9.587227e-01	 -1.774140e-01	 2.250000e+00
-9.587227e-01	 1.774140e-01	 2.250000e+00
-9.500000e-01	 0	 0
-9.500000e-01	 0	 3.750000e-01
-9.500000e-01	 0	 1.125000e+00
-9.500000e-01	 0	 1.500000e+00
-9.500000e-01	 0	 1.875000e+00
-9.500000e-01	 0	 2.250000e+00
-9.500000e-01	 0	 2.625000e+00
-9.500000e-01	 0	 3
-9.500000e-01	 0	 7.500000e-01
-9.341401e-01	 -1.728649e-01	 1.500000e+00
-9.341401e-01	 -1.728649e-01	 0
-9.341401e-01	 -1.728649e-01	 3.000000e+00
-9.341401e-01	 1.728649e-01	 2.250000e+00
-9.341401e-01	 1.728649e-01	 0
-9.341401e-01	 1.728649e-01	 1.500000e+00
-9.341401e-01	 1.728649e-01	 3.000000e+00
-9.341401e-01	 -1.728649e-01	 7.500000e-01
-9.341401e-01	 -1.728649e-01	 2.250000e+00
-9.341401e-01	 1.728649e-01	 7.500000e-01
-9.297883e-01	 -3.680947e-01	 1.125000e+00
-9.297883e-01	 -3.680947e-01	 0
-9.297883e-01	 -3.680947e-01	 7.500000e-01
-9.297883e-01	 -3.680947e-01	 1.500000e+00
-9.297883e-01	 -3.680947e-01	 1.875000e+00
-9.297883e-01	 -3.680947e-01	 2.250000e+00
-9.297883e-01	 -3.680947e-01	 2.625000e+00
-9.297883e-01	 -3.680947e-01	 3.000000e+00
-9.297883e-01	 -3.680947e-01	 3.750000e-01
-9.297883e-01	 3.680947e-01	 3.750000e-01
-9.297883e-01	 3.680947e-01	 2.250000e+00
-9.297883e-01	 3.680947e-01	 2.625000e+00
-9.297883e-01	 3.680947e-01	 0
-9.297883e-01	 3.680947e-01	 7.500000e-01
-9.297883e-01	 3.680947e-01	 1.500000e+00
-9.297883e-01	 3.680947e-01	 1.875000e+00
-9.297883e-01	 3.680947e-01	 3.000000e+00
-9.297883e-01	 3.680947e-01	 1.125000e+00
-9.181659e-01	 3.634935e-01	 7.500000e-01
-9.181659e-01	 -3.634935e-01	 0
-9.181659e-01	 -3.634935e-01	 7.500000e-01
-9.181659e-01	 -3.634935e-01	 2.250000e+00
-9.181659e-01	 -3.634935e-01	 3
-9.181659e-01	 3.634935e-01	 0
-9.181659e-01	 3.634935e-01	 2.250000e+00
-9.181659e-01	 3.634935e-01	 3
-9.181659e-01	 -3.634935e-01	 1.500000e+00
-9.181659e-01	 3.634935e-01	 1.500000e+00
-9.065436e-01	 -3.588923e-01	 1.125000e+00
-9.065436e-01	 -3.588923e-01	 2.625000e+00
-9.065436e-01	 -3.588923e-01	 0
-9.065436e-01	 -3.588923e-01	 3.750000e-01
-9.065436e-01	 -3.588923e-01	 1.500000e+00
-9.065436e-01	 -3.588923e-01	 3
-9.065436e-01	 3.588923e-01	 2.625000e+00
-9.065436e-01	 3.588923e-01	 1.125000e+00
-9.065436e-01	 3.588923e-01	 0
-9.065436e-01	 3.588923e-01	 3.750000e-01
-9.065436e-01	 3.588923e-01	 3
-9.065436e-01	 -3.588923e-01	 7.500000e-01
-9.065436e-01	 -3.588923e-01	 1.875000e+00
-9.065436e-01	 3.588923e-01	 1.875000e+00
-9.065436e-01	 3.588923e-01	 1.500000e+00
-9.065436e-01	 -3.588923e-01	 2.250000e+00
-9.065436e-01	 3.588923e-01	 7.500000e-01
-9.065436e-01	 3.588923e-01	 2.250000e+00
-8.949212e-01	 3.542912e-01	 1.500000e+00
-8.949212e-01	 -3.542912e-01	 1.500000e+00
-8.949212e-01	 -3.542912e-01	 0
-8.949212e-01	 -3.542912e-01	 3.000000e+00
-8.949212e-01	 3.542912e-01	 0
-8.949212e-01	 3.542912e-01	 3.000000e+00
-8.949212e-01	 -3.542912e-01	 2.250000e+00
-8.949212e-01	 -3.542912e-01	 7.500000e-01
-8.949212e-01	 3.542912e-01	 2.250000e+00
-8.949212e-01	 3.542912e-01	 7.500000e-01
-8.832989e-01	 -3.496900e-01	 1.125000e+00
-8.832989e-01	 -3.496900e-01	 1.875000e+00
-8.832989e-01	 -3.496900e-01	 2.625000e+00
-8.832989e-01	 -3.496900e-01	 2.250000e+00
-8.832989e-01	 3.496900e-01	 1.125000e+00
-8.832989e-01	 -3.496900e-01	 0
-8.832989e-01	 -3.496900e-01	 3.000000e+00
-8.832989e-01	 -3.496900e-01	 3.750000e-01
-8.832989e-01	 -3.496900e-01	 7.500000e-01
-8.832989e-01	 3.496900e-01	 3.750000e-01
-8.832989e-01	 3.496900e-01	 7.500000e-01
-8.832989e-01	 3.496900e-01	 2.250000e+00
-8.832989e-01	 3.496900e-01	 2.625000e+00
-8.832989e-01	 3.496900e-01	 0
-8.832989e-01	 3.496900e-01	 1.875000e+00
-8.832989e-01	 3.496900e-01	 3.000000e+00
-8.832989e-01	 -3.496900e-01	 1.500000e+00
-8.832989e-01	 3.496900e-01	 1.500000e+00
-8.369955e-01	 -5.472098e-01	 0
-8.369955e-01	 -5.472098e-01	 7.500000e-01
-8.369955e-01	 -5.472098e-01	 1.500000e+00
-8.369955e-01	 -5.472098e-01	 2.250000e+00
-8.369955e-01	 -5.472098e-01	 3
-8.369955e-01	 5.472098e-01	 0
-8.369955e-01	 5.472098e-01	 7.500000e-01
-8.369955e-01	 5.472098e-01	 1.500000e+00
-8.369955e-01	 5.472098e-01	 2.250000e+00
-8.369955e-01	 5.472098e-01	 3
-8.160706e-01	 -5.335295e-01	 7.500000e-01
-8.160706e-01	 5.335295e-01	 7.500000e-01
-8.160706e-01	 -5.335295e-01	 1.500000e+00
-8.160706e-01	 -5.335295e-01	 2.250000e+00
-8.160706e-01	 5.335295e-01	 1.500000e+00
-8.160706e-01	 5.335295e-01	 2.250000e+00
-8.160706e-01	 -5.335295e-01	 0
-8.160706e-01	 -5.335295e-01	 3.000000e+00
-8.160706e-01	 5.335295e-01	 0
-8.160706e-01	 5.335295e-01	 3.000000e+00
-7.951457e-01	 -5.198493e-01	 7.500000e-01
-7.951457e-01	 5.198493e-01	 7.500000e-01
-7.951457e-01	 -5.198493e-01	 0
-7.951457e-01	 -5.198493e-01	 1.500000e+00
-7.951457e-01	 -5.198493e-01	 2.250000e+00
-7.951457e-01	 -5.198493e-01	 3
-7.951457e-01	 5.198493e-01	 0
-7.951457e-01	 5.198493e-01	 1.500000e+00
-7.951457e-01	 5.198493e-01	 2.250000e+00
-7.951457e-01	 5.198493e-01	 3
-7.071068e-01	 -7.071068e-01	 0
-7.071068e-01	 -7.071068e-01	 3.750000e-01
-7.071068e-01	 -7.071068e-01	 7.500000e-01
-7.071068e-01	 -7.071068e-01	 1.125000e+00
-7.071068e-01	 -7.071068e-01	 1.500000e+00
-7.071068e-01	 -7.071068e-01	 1.875000e+00
-7.071068e-01	 -7.071068e-01	 2.250000e+00
-7.071068e-01	 -7.071068e-01	 2.625000e+00
-7.071068e-01	 -7.071068e-01	 3.000000e+00
-7.071068e-01	 7.071068e-01	 0
-7.071068e-01	 7.071068e-01	 3.750000e-01
-7.071068e-01	 7.071068e-01	 7.500000e-01
-7.071068e-01	 7.071068e-01	 1.125000e+00
-7.071068e-01	 7.071068e-01	 1.500000e+00
-7.071068e-01	 7.071068e-01	 1.875000e+00
-7.071068e-01	 7.071068e-01	 2.250000e+00
-7.071068e-01	 7.071068e-01	 2.625000e+00
-7.071068e-01	 7.071068e-01	 3.000000e+00
-6.982679e-01	 -6.982679e-01	 7.500000e-01
-6.982679e-01	 6.982679e-01	 7.500000e-01
-6.982679e-01	 -6.982679e-01	 0
-6.982679e-01	 -6.982679e-01	 2.250000e+00
-6.982679e-01	 -6.982679e-01	 3.000000e+00
-6.982679e-01	 6.982679e-01	 0
-6.982679e-01	 6.982679e-01	 2.250000e+00
-6.982679e-01	 6.982679e-01	 3.000000e+00
-6.982679e-01	 -6.982679e-01	 1.500000e+00
-6.982679e-01	 6.982679e-01	 1.500000e+00
-6.894291e-01	 -6.894291e-01	 3.750000e-01
-6.894291e-01	 -6.894291e-01	 2.625000e+00
-6.894291e-01	 -6.894291e-01	 0
-6.894291e-01	 -6.894291e-01	 1.500000e+00
-6.894291e-01	 -6.894291e-01	 2.250000e+00
-6.894291e-01	 -6.894291e-01	 3.000000e+00
-6.894291e-01	 6.894291e-01	 3.750000e-01
-6.894291e-01	 6.894291e-01	 2.625000e+00
-6.894291e-01	 -6.894291e-01	 1.875000e+00
-6.894291e-01	 6.894291e-01	 1.875000e+00
-6.894291e-01	 -6.894291e-01	 7.500000e-01
-6.894291e-01	 -6.894291e-01	 1.125000e+00
-6.894291e-01	 6.894291e-01	 0
-6.894291e-01	 6.894291e-01	 1.500000e+00
-6.894291e-01	 6.894291e-01	 2.250000e+00
-6.894291e-01	 6.894291e-01	 3.000000e+00
-6.894291e-01	 6.894291e-01	 7.500000e-01
-6.894291e-01	 6.894291e-01	 1.125000e+00
-6.805903e-01	 6.805903e-01	 7.500000e-01
-6.805903e-01	 -6.805903e-01	 7.500000e-01
-6.805903e-01	 -6.805903e-01	 0
-6.805903e-01	 -6.805903e-01	 1.500000e+00
-6.805903e-01	 -6.805903e-01	 3.000000e+00
-6.805903e-01	 6.805903e-01	 0
-6.805903e-01	 6.805903e-01	 1.500000e+00
-6.805903e-01	 6.805903e-01	 3.000000e+00
-6.805903e-01	 6.805903e-01	 2.250000e+00
-6.805903e-01	 -6.805903e-01	 2.250000e+00
-6.717514e-01	 -6.717514e-01	 2.625000e+00
-6.717514e-01	 6.717514e-01	 2.625000e+00
-6.717514e-01	 -6.717514e-01	 0
-6.717514e-01	 -6.717514e-01	 3.750000e-01
-6.717514e-01	 -6.717514e-01	 7.500000e-01
-6.717514e-01	 -6.717514e-01	 1.125000e+00
-6.717514e-01	 -6.717514e-01	 1.875000e+00
-6.717514e-01	 -6.717514e-01	 3.000000e+00
-6.717514e-01	 -6.717514e-01	 2.250000e+00
-6.717514e-01	 6.717514e-01	 1.500000e+00
-6.717514e-01	 6.717514e-01	 0
-6.717514e-01	 6.717514e-01	 3.750000e-01
-6.717514e-01	 6.717514e-01	 7.500000e-01
-6.717514e-01	 6.717514e-01	 1.125000e+00
-6.717514e-01	 6.717514e-01	 1.875000e+00
-6.717514e-01	 6.717514e-01	 3.000000e+00
-6.717514e-01	 -6.717514e-01	 1.500000e+00
-6.717514e-01	 6.717514e-01	 2.250000e+00
-5.472098e-01	 -8.369955e-01	 0
-5.472098e-01	 -8.369955e-01	 7.500000e-01
-5.472098e-01	 -8.369955e-01	 1.500000e+00
-5.472098e-01	 -8.369955e-01	 2.250000e+00
-5.472098e-01	 -8.369955e-01	 3
-5.472098e-01	 8.369955e-01	 0
-5.472098e-01	 8.369955e-01	 7.500000e-01
-5.472098e-01	 8.369955e-01	 1.500000e+00
-5.472098e-01	 8.369955e-01	 2.250000e+00
-5.472098e-01	 8.369955e-01	 3
-5.335295e-01	 -8.160706e-01	 1.500000e+00
-5.335295e-01	 -8.160706e-01	 2.250000e+00
-5.335295e-01	 8.160706e-01	 0
-5.335295e-01	 8.160706e-01	 3.000000e+00
[...]
POINT_DATA 832
VECTORS displacement float
0	 0	 -1.188710e-02
-2.533568e-02	 4.222775e-09	 -1.089707e-02
-4.655070e-02	 7.829215e-09	 -8.405449e-03
-6.116574e-02	 1.019827e-08	 -4.513713e-03
-6.583262e-02	 1.107307e-08	 -2.728568e-11
-6.116574e-02	 1.019750e-08	 4.513713e-03
-4.655070e-02	 7.827639e-09	 8.405449e-03
-2.533568e-02	 4.220981e-09	 1.089707e-02
0	 0	 1.188710e-02
0	 0	 -1.098237e-02
-6.593784e-02	 1.137511e-08	 -2.896354e-11
0	 0	 1.098237e-02
-4.662510e-02	 8.041977e-09	 7.765706e-03
-4.662510e-02	 8.041771e-09	 -7.765707e-03
-4.412311e-02	 -1.948115e-04	 -7.885447e-03
0	 0	 -1.115171e-02
-6.239949e-02	 -2.755051e-04	 -2.704500e-11
0	 0	 1.115171e-02
-4.412311e-02	 1.948277e-04	 7.885449e-03
0	 0	 -1.115171e-02
-6.239950e-02	 2.755280e-04	 -3.043264e-11
0	 0	 1.115171e-02
-4.412311e-02	 1.948277e-04	 -7.885449e-03
-4.412311e-02	 -1.948115e-04	 7.885447e-03
-4.668435e-02	 8.254718e-09	 -7.126761e-03
-6.132516e-02	 1.076047e-08	 -3.868783e-03
0	 0	 -1.007876e-02
-2.540171e-02	 4.454345e-09	 -9.340067e-03
-6.132516e-02	 1.076234e-08	 3.868783e-03
-2.540171e-02	 4.454914e-09	 9.340067e-03
0	 0	 1.007876e-02
-6.602164e-02	 1.167768e-08	 -3.062715e-11
-4.668435e-02	 8.256693e-09	 7.126761e-03
-6.609057e-02	 1.197913e-08	 -3.229261e-11
-4.673309e-02	 8.470599e-09	 6.487019e-03
0	 0	 -9.174030e-03
-4.673309e-02	 8.466885e-09	 -6.487019e-03
0	 0	 9.174030e-03
0	 0	 -9.471154e-03
0	 0	 9.471154e-03
-6.267784e-02	 6.423716e-04	 -3.045239e-11
0	 0	 -9.471156e-03
0	 0	 9.471156e-03
-6.267785e-02	 -6.423475e-04	 -3.257539e-11
-4.431993e-02	 -4.542083e-04	 -6.697119e-03
-4.431993e-02	 4.542253e-04	 -6.697117e-03
-4.431993e-02	 4.542253e-04	 6.697117e-03
-4.431993e-02	 -4.542083e-04	 6.697119e-03
0	 0	 -8.266819e-03
-2.543698e-02	 4.685641e-09	 -7.779360e-03
-6.141031e-02	 1.132201e-08	 -3.222317e-03
-6.613565e-02	 1.228132e-08	 -3.397536e-11
-6.141031e-02	 1.132648e-08	 3.222317e-03
-4.676497e-02	 8.685049e-09	 5.845524e-03
-2.543698e-02	 4.688560e-09	 7.779360e-03
0	 0	 8.266819e-03
-4.676497e-02	 8.679565e-09	 -5.845524e-03
-6.288949e-02	 1.579122e-03	 -3.385837e-11
0	 0	 -7.789331e-03
0	 0	 7.789331e-03
-4.446959e-02	 -1.116590e-03	 5.507890e-03
0	 0	 -7.789333e-03
-6.288949e-02	 -1.579096e-03	 -3.471517e-11
0	 0	 7.789333e-03
-4.446958e-02	 1.116608e-03	 -5.507889e-03
-4.446958e-02	 1.116608e-03	 5.507889e-03
-4.446959e-02	 -1.116590e-03	 -5.507890e-03
-4.804231e-02	 1.970513e-03	 -3.275104e-03
0	 0	 -8.623610e-03
-3.661011e-02	 1.636001e-03	 -6.097813e-03
-5.177451e-02	 2.313655e-03	 -3.153031e-11
-4.804231e-02	 1.970513e-03	 3.275104e-03
-3.661011e-02	 1.636001e-03	 6.097813e-03
-1.989977e-02	 8.162134e-04	 7.906800e-03
0	 0	 8.623610e-03
-1.989977e-02	 8.162134e-04	 -7.906800e-03
-1.989978e-02	 -8.162037e-04	 -7.906805e-03
-3.661012e-02	 -1.635983e-03	 6.097817e-03
-1.989978e-02	 -8.162037e-04	 7.906805e-03
0	 0	 -8.623615e-03
-3.661012e-02	 -1.635983e-03	 -6.097817e-03
-5.177453e-02	 -2.313629e-03	 -3.687345e-11
-4.804232e-02	 -1.970490e-03	 3.275106e-03
0	 0	 8.623615e-03
-4.804232e-02	 -1.970490e-03	 -3.275106e-03
-3.689246e-02	 -2.209776e-03	 -5.637820e-03
0	 0	 -7.973076e-03
-3.689245e-02	 2.209794e-03	 -5.637816e-03
-3.689245e-02	 2.209794e-03	 5.637816e-03
0	 0	 7.973076e-03
0	 0	 -7.973081e-03
-3.689246e-02	 -2.209776e-03	 5.637820e-03
0	 0	 7.973081e-03
-5.217381e-02	 3.125121e-03	 -3.251537e-11
-5.217382e-02	 -3.125095e-03	 -3.692003e-11
-4.876150e-02	 3.486949e-03	 -2.811420e-03
-2.019767e-02	 1.444342e-03	 6.787368e-03
0	 0	 -7.323116e-03
-2.019767e-02	 1.444342e-03	 -6.787368e-03
-5.256080e-02	 3.940896e-03	 -3.349470e-11
0	 0	 7.323116e-03
-2.019768e-02	 -1.444332e-03	 6.787372e-03
-4.876152e-02	 -3.486925e-03	 -2.811422e-03
0	 0	 -7.323121e-03
-2.019768e-02	 -1.444332e-03	 -6.787372e-03
0	 0	 7.323121e-03
-3.716610e-02	 2.786634e-03	 -5.178225e-03
-4.876150e-02	 3.486949e-03	 2.811420e-03
-4.876152e-02	 -3.486925e-03	 2.811422e-03
-5.256082e-02	 -3.940870e-03	 -3.697137e-11
-3.716610e-02	 2.786634e-03	 5.178225e-03
-3.716611e-02	 -2.786616e-03	 -5.178228e-03
-3.716611e-02	 -2.786616e-03	 5.178228e-03
-5.293805e-02	 -4.753744e-03	 -3.702371e-11
-5.293803e-02	 4.753771e-03	 -3.447648e-11
0	 0	 -6.672267e-03
0	 0	 6.672267e-03
0	 0	 -6.672271e-03
0	 0	 6.672271e-03
-3.743284e-02	 3.361424e-03	 4.718005e-03
-3.743284e-02	 3.361424e-03	 -4.718005e-03
-3.743285e-02	 -3.361405e-03	 4.718008e-03
-3.743285e-02	 -3.361405e-03	 -4.718008e-03
-4.943719e-02	 5.012878e-03	 -2.346493e-03
-4.943719e-02	 5.012878e-03	 2.346493e-03
-2.047755e-02	 2.076402e-03	 5.664935e-03
-3.769117e-02	 3.942753e-03	 4.256606e-03
-4.943720e-02	 -5.012853e-03	 -2.346494e-03
0	 0	 -6.019749e-03
0	 0	 6.019749e-03
-2.047755e-02	 2.076402e-03	 -5.664935e-03
-3.769117e-02	 3.942753e-03	 -4.256606e-03
-2.047756e-02	 -2.076392e-03	 -5.664939e-03
-3.769118e-02	 -3.942734e-03	 -4.256608e-03
-3.769118e-02	 -3.942734e-03	 4.256608e-03
-2.047756e-02	 -2.076392e-03	 5.664939e-03
0	 0	 -6.019753e-03
-4.943720e-02	 -5.012853e-03	 2.346494e-03
0	 0	 6.019753e-03
-5.330336e-02	 5.575895e-03	 -3.546605e-11
-5.330337e-02	 -5.575867e-03	 -3.707180e-11
0	 0	 -4.773453e-03
-2.633385e-02	 6.703756e-03	 -3.375341e-03
-3.724169e-02	 9.480543e-03	 -3.773239e-11
-2.633385e-02	 6.703756e-03	 3.375341e-03
0	 0	 4.773452e-03
0	 0	 -4.773460e-03
-2.633387e-02	 -6.703736e-03	 -3.375346e-03
-3.724172e-02	 -9.480514e-03	 -4.286864e-11
-2.633387e-02	 -6.703736e-03	 3.375346e-03
0	 0	 4.773460e-03
-2.721901e-02	 8.000167e-03	 -2.872715e-03
-2.721903e-02	 -8.000145e-03	 -2.872720e-03
-3.849350e-02	 1.131394e-02	 -3.752900e-11
-2.721901e-02	 8.000166e-03	 2.872715e-03
-3.849352e-02	 -1.131391e-02	 -4.119319e-11
-2.721903e-02	 -8.000145e-03	 2.872720e-03
0	 0	 -4.062633e-03
0	 0	 4.062633e-03
0	 0	 -4.062640e-03
0	 0	 4.062639e-03
-2.809320e-02	 9.314912e-03	 -2.369783e-03
-2.809322e-02	 -9.314890e-03	 -2.369787e-03
0	 0	 -3.351379e-03
-3.972978e-02	 1.317327e-02	 -3.732871e-11
-2.809320e-02	 9.314912e-03	 2.369783e-03
0	 0	 3.351379e-03
0	 0	 -3.351385e-03
-3.972981e-02	 -1.317324e-02	 -3.951949e-11
-2.809322e-02	 -9.314890e-03	 2.369787e-03
0	 0	 3.351385e-03
0	 0	 4.128522e-09
-8.340089e-03	 8.340101e-03	 3.782796e-09
-1.546896e-02	 1.546898e-02	 2.902855e-09
-2.013476e-02	 2.013478e-02	 1.538463e-09
-2.187642e-02	 2.187644e-02	 -4.315447e-11
-2.013476e-02	 2.013478e-02	 -1.621324e-09
-1.546896e-02	 1.546898e-02	 -2.977833e-09
-8.340089e-03	 8.340101e-03	 -3.848660e-09
0	 0	 -4.189444e-09
0	 0	 -4.625865e-09
-8.340101e-03	 -8.340088e-03	 -4.249650e-09
-1.546898e-02	 -1.546896e-02	 -3.289590e-09
-2.013478e-02	 -2.013475e-02	 -1.789596e-09
-2.187645e-02	 -2.187641e-02	 -4.439481e-11
-2.013478e-02	 -2.013475e-02	 1.703747e-09
-1.546898e-02	 -1.546896e-02	 3.209014e-09
-8.340101e-03	 -8.340088e-03	 4.174560e-09
0	 0	 4.553980e-09
-1.610534e-02	 1.610536e-02	 2.701469e-09
-1.610536e-02	 -1.610534e-02	 -3.053574e-09
0	 0	 3.841924e-09
-1.610534e-02	 1.610536e-02	 -2.776170e-09
0	 0	 -3.905458e-09
0	 0	 -4.294959e-09
-1.610536e-02	 -1.610534e-02	 2.972993e-09
0	 0	 4.221134e-09
-2.277639e-02	 2.277642e-02	 -4.212494e-11
-2.277642e-02	 -2.277639e-02	 -4.342161e-11
-9.031158e-03	 9.031169e-03	 3.290919e-09
-9.031158e-03	 9.031169e-03	 -3.359670e-09
0	 0	 3.555409e-09
-2.367599e-02	 2.367602e-02	 -4.110245e-11
-1.674145e-02	 1.674147e-02	 -2.574560e-09
0	 0	 -3.621542e-09
-9.031169e-03	 -9.031156e-03	 -3.678430e-09
-9.031169e-03	 -9.031156e-03	 3.600888e-09
-2.180314e-02	 2.180317e-02	 -1.417311e-09
-2.180317e-02	 -2.180314e-02	 1.466930e-09
-1.674145e-02	 1.674147e-02	 2.500135e-09
-2.180314e-02	 2.180317e-02	 1.337333e-09
0	 0	 -3.964255e-09
-2.367602e-02	 -2.367599e-02	 -4.245635e-11
-1.674147e-02	 -1.674145e-02	 2.737129e-09
0	 0	 3.888508e-09
-1.674147e-02	 -1.674145e-02	 -2.817716e-09
-2.180317e-02	 -2.180314e-02	 -1.550329e-09
-1.737387e-02	 -1.737385e-02	 -2.581639e-09
-1.737385e-02	 1.737387e-02	 2.298622e-09
0	 0	 3.268643e-09
-2.457034e-02	 2.457037e-02	 -4.008043e-11
0	 0	 -3.337373e-09
0	 0	 -3.633243e-09
-2.457037e-02	 -2.457033e-02	 -4.149202e-11
0	 0	 3.555575e-09
-1.737387e-02	 -1.737385e-02	 2.501047e-09
-1.737385e-02	 1.737387e-02	 -2.372770e-09
-9.719712e-03	 9.719723e-03	 -2.869574e-09
-9.719723e-03	 -9.719710e-03	 3.025929e-09
0	 0	 2.981259e-09
-9.719712e-03	 9.719723e-03	 2.797925e-09
-1.800857e-02	 1.800859e-02	 2.096686e-09
-2.346546e-02	 2.346549e-02	 1.135752e-09
-2.346546e-02	 2.346549e-02	 -1.212833e-09
0	 0	 -3.052612e-09
-1.800857e-02	 1.800859e-02	 -2.170554e-09
-2.546799e-02	 -2.546796e-02	 -4.051467e-11
0	 0	 -3.301462e-09
-9.719723e-03	 -9.719710e-03	 -3.105930e-09
-1.800859e-02	 -1.800857e-02	 -2.344993e-09
-2.346549e-02	 -2.346546e-02	 -1.310521e-09
-2.346549e-02	 -2.346546e-02	 1.229582e-09
0	 0	 3.221850e-09
-2.546796e-02	 2.546799e-02	 -3.904802e-11
-1.800859e-02	 -1.800857e-02	 2.264398e-09
0	 0	 4.773460e-03
-6.703736e-03	 2.633387e-02	 3.375346e-03
-9.480515e-03	 3.724172e-02	 -4.669289e-11
-6.703736e-03	 2.633387e-02	 -3.375346e-03
0	 0	 -4.773460e-03
0	 0	 4.773451e-03
-6.703759e-03	 -2.633385e-02	 3.375340e-03
-9.480546e-03	 -3.724168e-02	 -4.350979e-11
-6.703759e-03	 -2.633385e-02	 -3.375340e-03
0	 0	 -4.773452e-03
-1.131392e-02	 3.849353e-02	 -4.375216e-11
-8.000146e-03	 2.721903e-02	 -2.872720e-03
0	 0	 4.062632e-03
0	 0	 -4.062632e-03
-1.131395e-02	 -3.849349e-02	 -4.250760e-11
-8.000169e-03	 -2.721901e-02	 -2.872715e-03
-8.000146e-03	 2.721903e-02	 2.872720e-03
0	 0	 4.062640e-03
0	 0	 -4.062640e-03
-8.000169e-03	 -2.721901e-02	 2.872715e-03
-9.314914e-03	 -2.809319e-02	 2.369782e-03
-9.314891e-03	 2.809322e-02	 2.369787e-03
0	 0	 3.351385e-03
-1.317325e-02	 3.972981e-02	 -4.081104e-11
-9.314892e-03	 2.809322e-02	 -2.369787e-03
0	 0	 -3.351385e-03
0	 0	 3.351378e-03
-1.317328e-02	 -3.972978e-02	 -4.150433e-11
-9.314914e-03	 -2.809319e-02	 -2.369783e-03
0	 0	 -3.351379e-03
-1.970489e-03	 4.804233e-02	 3.275106e-03
-1.970517e-03	 -4.804230e-02	 3.275103e-03
0	 0	 8.623616e-03
-1.635982e-03	 3.661013e-02	 6.097817e-03
-2.313629e-03	 5.177454e-02	 -4.557983e-11
-1.970489e-03	 4.804233e-02	 -3.275106e-03
0	 0	 -8.623616e-03
0	 0	 8.623609e-03
-1.636004e-03	 -3.661010e-02	 6.097812e-03
-2.313659e-03	 -5.177451e-02	 -4.128714e-11
-1.970517e-03	 -4.804230e-02	 -3.275103e-03
-1.636004e-03	 -3.661010e-02	 -6.097812e-03
-8.162148e-04	 -1.989977e-02	 -7.906799e-03
0	 0	 -8.623609e-03
-8.162033e-04	 1.989978e-02	 7.906806e-03
-1.635982e-03	 3.661013e-02	 -6.097818e-03
-8.162033e-04	 1.989978e-02	 -7.906806e-03
-8.162148e-04	 -1.989977e-02	 7.906799e-03
-3.125095e-03	 5.217383e-02	 -4.448453e-11
-3.125125e-03	 -5.217380e-02	 -4.152313e-11
-2.209776e-03	 3.689247e-02	 5.637820e-03
0	 0	 7.973082e-03
-2.209776e-03	 3.689247e-02	 -5.637820e-03
0	 0	 -7.973082e-03
0	 0	 7.973075e-03
-2.209797e-03	 -3.689244e-02	 5.637815e-03
-2.209797e-03	 -3.689244e-02	 -5.637815e-03
0	 0	 -7.973075e-03
-2.786615e-03	 3.716612e-02	 -5.178229e-03
-2.786637e-03	 -3.716609e-02	 -5.178225e-03
-3.486953e-03	 -4.876149e-02	 2.811419e-03
-1.444343e-03	 -2.019767e-02	 -6.787367e-03
0	 0	 7.323121e-03
-1.444331e-03	 2.019768e-02	 6.787373e-03
0	 0	 -7.323122e-03
-3.940869e-03	 5.256083e-02	 -4.339629e-11
0	 0	 7.323115e-03
-1.444343e-03	 -2.019767e-02	 6.787367e-03
-3.940900e-03	 -5.256079e-02	 -4.175483e-11
0	 0	 -7.323115e-03
-3.486924e-03	 4.876152e-02	 2.811422e-03
-3.486924e-03	 4.876152e-02	 -2.811422e-03
-2.786615e-03	 3.716612e-02	 5.178229e-03
-2.786637e-03	 -3.716609e-02	 5.178224e-03
-3.486953e-03	 -4.876149e-02	 -2.811419e-03
-1.444331e-03	 2.019768e-02	 -6.787373e-03
-4.753744e-03	 5.293806e-02	 -4.230775e-11
-3.361404e-03	 3.743286e-02	 -4.718009e-03
-3.361426e-03	 -3.743284e-02	 -4.718005e-03
0	 0	 6.672266e-03
0	 0	 -6.672266e-03
-4.753775e-03	 -5.293802e-02	 -4.198712e-11
0	 0	 6.672272e-03
0	 0	 -6.672272e-03
-3.361404e-03	 3.743286e-02	 4.718008e-03
-3.361426e-03	 -3.743284e-02	 4.718004e-03
-5.012852e-03	 4.943721e-02	 2.346495e-03
0	 0	 6.019754e-03
-5.012852e-03	 4.943721e-02	 -2.346495e-03
0	 0	 -6.019754e-03
-5.575867e-03	 5.330338e-02	 -4.120772e-11
0	 0	 6.019749e-03
0	 0	 -6.019749e-03
-5.012882e-03	 -4.943718e-02	 2.346493e-03
-5.012882e-03	 -4.943718e-02	 -2.346493e-03
-2.076404e-03	 -2.047755e-02	 -5.664934e-03
-2.076391e-03	 2.047756e-02	 5.664939e-03
-3.942734e-03	 3.769118e-02	 4.256609e-03
-3.942734e-03	 3.769118e-02	 -4.256609e-03
-2.076391e-03	 2.047756e-02	 -5.664939e-03
-5.575899e-03	 -5.330335e-02	 -4.222309e-11
-2.076404e-03	 -2.047755e-02	 5.664934e-03
-3.942756e-03	 -3.769116e-02	 -4.256605e-03
-3.942756e-03	 -3.769116e-02	 4.256605e-03
1.948287e-04	 4.412312e-02	 7.885449e-03
1.948093e-04	 -4.412310e-02	 7.885446e-03
0	 0	 1.115171e-02
2.755293e-04	 6.239951e-02	 -4.262039e-11
0	 0	 -1.115171e-02
0	 0	 1.115170e-02
2.755019e-04	 -6.239949e-02	 -3.984047e-11
0	 0	 -1.115170e-02
1.948287e-04	 4.412312e-02	 -7.885449e-03
1.948093e-04	 -4.412310e-02	 -7.885446e-03
-4.542074e-04	 4.431994e-02	 6.697119e-03
0	 0	 9.471157e-03
0	 0	 -9.471157e-03
-4.542278e-04	 -4.431992e-02	 6.697116e-03
-4.542278e-04	 -4.431992e-02	 -6.697117e-03
0	 0	 9.471153e-03
0	 0	 -9.471153e-03
-4.542074e-04	 4.431994e-02	 -6.697119e-03
-6.423751e-04	 -6.267784e-02	 -4.136858e-11
-6.423463e-04	 6.267786e-02	 -4.211129e-11
-1.579126e-03	 -6.288948e-02	 -4.289020e-11
0	 0	 7.789334e-03
-1.579095e-03	 6.288950e-02	 -4.159680e-11
0	 0	 -7.789334e-03
0	 0	 7.789331e-03
0	 0	 -7.789331e-03
-1.116589e-03	 4.446960e-02	 -5.507891e-03
-1.116589e-03	 4.446960e-02	 5.507891e-03
-1.116610e-03	 -4.446958e-02	 5.507888e-03
-1.116610e-03	 -4.446958e-02	 -5.507889e-03
0	 0	 1.188710e-02
4.612185e-09	 2.533568e-02	 1.089707e-02
8.550493e-09	 4.655070e-02	 8.405450e-03
1.113070e-08	 6.116575e-02	 4.513713e-03
1.208570e-08	 6.583263e-02	 -3.972082e-11
1.112421e-08	 6.116575e-02	 -4.513713e-03
8.540371e-09	 4.655070e-02	 -8.405450e-03
4.605317e-09	 2.533568e-02	 -1.089707e-02
0	 0	 -1.188710e-02
0	 0	 1.098237e-02
1.252903e-08	 6.593785e-02	 -4.028269e-11
0	 0	 -1.098237e-02
8.852926e-09	 4.662510e-02	 -7.765707e-03
8.866773e-09	 4.662510e-02	 7.765707e-03
9.182961e-09	 4.668436e-02	 7.126762e-03
1.195902e-08	 6.132517e-02	 3.868783e-03
0	 0	 1.007876e-02
4.958050e-09	 2.540172e-02	 9.340068e-03
1.194749e-08	 6.132517e-02	 -3.868783e-03
4.945965e-09	 2.540172e-02	 -9.340068e-03
0	 0	 -1.007876e-02
1.297230e-08	 6.602165e-02	 -4.083507e-11
9.165438e-09	 4.668436e-02	 -7.126762e-03
1.341308e-08	 6.609058e-02	 -4.138791e-11
9.476193e-09	 4.673310e-02	 -6.487019e-03
0	 0	 9.174030e-03
9.497368e-09	 4.673310e-02	 6.487019e-03
0	 0	 -9.174030e-03
0	 0	 8.266820e-03
5.302796e-09	 2.543699e-02	 7.779361e-03
1.278466e-08	 6.141032e-02	 3.222317e-03
1.385558e-08	 6.613566e-02	 -4.195044e-11
1.276812e-08	 6.141032e-02	 -3.222317e-03
9.788159e-09	 4.676497e-02	 -5.845524e-03
5.285511e-09	 2.543699e-02	 -7.779361e-03
0	 0	 -8.266820e-03
9.813031e-09	 4.676497e-02	 5.845524e-03
-1.150431e-08	 -4.676496e-02	 5.845524e-03
0	 0	 8.266819e-03
-6.211147e-09	 -2.543698e-02	 7.779360e-03
-1.499827e-08	 -6.141031e-02	 3.222316e-03
-1.626407e-08	 -6.613564e-02	 -4.387435e-11
-1.498707e-08	 -6.141031e-02	 -3.222317e-03
-1.148892e-08	 -4.676496e-02	 -5.845524e-03
-6.201276e-09	 -2.543698e-02	 -7.779360e-03
0	 0	 -8.266819e-03
0	 0	 9.174029e-03
-1.103868e-08	 -4.673309e-02	 6.487018e-03
0	 0	 -9.174029e-03
-1.560732e-08	 -6.609057e-02	 -4.321738e-11
-1.102545e-08	 -4.673309e-02	 -6.487018e-03
-1.495376e-08	 -6.602164e-02	 -4.257015e-11
-1.056422e-08	 -4.668435e-02	 -7.126761e-03
0	 0	 1.007876e-02
-5.704835e-09	 -2.540171e-02	 9.340067e-03
-1.376929e-08	 -6.132516e-02	 -3.868782e-03
-5.697789e-09	 -2.540171e-02	 -9.340067e-03
0	 0	 -1.007876e-02
-1.057533e-08	 -4.668435e-02	 7.126761e-03
-1.377764e-08	 -6.132516e-02	 3.868782e-03
-1.010871e-08	 -4.662509e-02	 7.765706e-03
-1.009974e-08	 -4.662509e-02	 -7.765706e-03
0	 0	 1.098237e-02
-1.429558e-08	 -6.593784e-02	 -4.192269e-11
0	 0	 -1.098237e-02
0	 0	 1.188710e-02
-5.196144e-09	 -2.533568e-02	 1.089707e-02
-9.641425e-09	 -4.655069e-02	 8.405449e-03
-1.255130e-08	 -6.116574e-02	 4.513713e-03
-1.363649e-08	 -6.583262e-02	 -4.126487e-11
-1.254581e-08	 -6.116574e-02	 -4.513713e-03
-9.634615e-09	 -4.655069e-02	 -8.405449e-03
-5.191928e-09	 -2.533568e-02	 -1.089707e-02
0	 0	 -1.188710e-02
1.116609e-03	 4.446959e-02	 5.507889e-03
1.116609e-03	 4.446959e-02	 -5.507889e-03
1.116587e-03	 -4.446959e-02	 5.507890e-03
1.116587e-03	 -4.446959e-02	 -5.507890e-03
0	 0	 7.789331e-03
0	 0	 -7.789332e-03
0	 0	 7.789333e-03
1.579092e-03	 -6.288950e-02	 -4.490339e-11
0	 0	 -7.789333e-03
1.579124e-03	 6.288949e-02	 -4.222484e-11
6.423438e-04	 -6.267785e-02	 -4.471968e-11
6.423732e-04	 6.267785e-02	 -4.022388e-11
4.542057e-04	 -4.431994e-02	 -6.697119e-03
0	 0	 9.471154e-03
0	 0	 -9.471154e-03
4.542264e-04	 4.431993e-02	 6.697117e-03
4.542264e-04	 4.431993e-02	 -6.697117e-03
0	 0	 9.471156e-03
0	 0	 -9.471156e-03
4.542057e-04	 -4.431994e-02	 6.697119e-03
-1.948108e-04	 4.412311e-02	 -7.885447e-03
-1.948298e-04	 -4.412311e-02	 -7.885449e-03
0	 0	 1.115171e-02
-2.755040e-04	 6.239950e-02	 -3.821889e-11
0	 0	 -1.115171e-02
0	 0	 1.115171e-02
-2.755310e-04	 -6.239950e-02	 -4.453372e-11
0	 0	 -1.115171e-02
-1.948107e-04	 4.412311e-02	 7.885447e-03
-1.948298e-04	 -4.412311e-02	 7.885449e-03
3.942756e-03	 3.769117e-02	 4.256606e-03
3.942756e-03	 3.769117e-02	 -4.256606e-03
2.076403e-03	 2.047755e-02	 5.664935e-03
5.575899e-03	 5.330336e-02	 -4.351315e-11
2.076389e-03	 -2.047756e-02	 5.664939e-03
3.942730e-03	 -3.769118e-02	 4.256609e-03
3.942730e-03	 -3.769118e-02	 -4.256609e-03
2.076389e-03	 -2.047756e-02	 -5.664939e-03
5.012881e-03	 4.943719e-02	 2.346493e-03
5.012881e-03	 4.943719e-02	 -2.346493e-03
2.076403e-03	 2.047755e-02	 -5.664935e-03
0	 0	 6.019749e-03
0	 0	 -6.019749e-03
5.575862e-03	 -5.330338e-02	 -4.720250e-11
0	 0	 6.019754e-03
5.012847e-03	 -4.943721e-02	 -2.346495e-03
0	 0	 -6.019754e-03
5.012847e-03	 -4.943721e-02	 2.346495e-03
3.361426e-03	 3.743284e-02	 4.718005e-03
3.361401e-03	 -3.743286e-02	 4.718008e-03
0	 0	 6.672272e-03
0	 0	 -6.672272e-03
4.753774e-03	 5.293803e-02	 -4.281513e-11
0	 0	 6.672267e-03
0	 0	 -6.672267e-03
3.361426e-03	 3.743284e-02	 -4.718005e-03
3.361401e-03	 -3.743286e-02	 -4.718009e-03
4.753739e-03	 -5.293806e-02	 -4.783675e-11
1.444330e-03	 -2.019768e-02	 -6.787373e-03
2.786636e-03	 3.716610e-02	 5.178225e-03
3.486952e-03	 4.876150e-02	 -2.811420e-03
2.786612e-03	 -3.716611e-02	 5.178229e-03
3.486920e-03	 -4.876152e-02	 -2.811422e-03
3.486920e-03	 -4.876152e-02	 2.811422e-03
0	 0	 7.323116e-03
1.444343e-03	 2.019767e-02	 6.787368e-03
3.940899e-03	 5.256080e-02	 -4.212520e-11
0	 0	 -7.323116e-03
3.940865e-03	 -5.256082e-02	 -4.846267e-11
0	 0	 7.323121e-03
1.444330e-03	 -2.019768e-02	 6.787373e-03
0	 0	 -7.323122e-03
3.486952e-03	 4.876150e-02	 2.811420e-03
1.444343e-03	 2.019767e-02	 -6.787368e-03
2.786636e-03	 3.716610e-02	 -5.178225e-03
2.786612e-03	 -3.716611e-02	 -5.178229e-03
0	 0	 7.973076e-03
2.209796e-03	 3.689245e-02	 5.637816e-03
2.209796e-03	 3.689245e-02	 -5.637816e-03
0	 0	 -7.973076e-03
0	 0	 7.973082e-03
2.209773e-03	 -3.689247e-02	 -5.637820e-03
0	 0	 -7.973082e-03
2.209773e-03	 -3.689247e-02	 5.637820e-03
3.125124e-03	 5.217381e-02	 -4.143666e-11
3.125091e-03	 -5.217383e-02	 -4.908882e-11
8.162143e-04	 1.989977e-02	 7.906800e-03
8.162019e-04	 -1.989978e-02	 7.906806e-03
1.635980e-03	 -3.661013e-02	 -6.097818e-03
8.162019e-04	 -1.989978e-02	 -7.906806e-03
0	 0	 8.623610e-03
1.636003e-03	 3.661011e-02	 6.097813e-03
2.313657e-03	 5.177452e-02	 -4.074120e-11
1.970515e-03	 4.804231e-02	 -3.275104e-03
1.636003e-03	 3.661011e-02	 -6.097813e-03
8.162142e-04	 1.989978e-02	 -7.906800e-03
0	 0	 -8.623610e-03
0	 0	 8.623616e-03
1.635980e-03	 -3.661013e-02	 6.097817e-03
2.313625e-03	 -5.177454e-02	 -4.972206e-11
1.970486e-03	 -4.804233e-02	 -3.275106e-03
0	 0	 -8.623616e-03
1.970516e-03	 4.804231e-02	 3.275104e-03
1.970486e-03	 -4.804233e-02	 3.275106e-03
0	 0	 3.351379e-03
1.317328e-02	 3.972978e-02	 -4.482588e-11