# vtk DataFile Version 3.0
Unstructured Grid Example
ASCII
DATASET UNSTRUCTURED_GRID
POINTS 832 float
-1	 0	 0
-1	 0	 3.750000e-01
-1	 0	 7.500000e-01
-1	 0	 1.125000e+00
-1	 0	 1.500000e+00
-1	 0	 1.875000e+00
-1	 0	 2.250000e+00
-1	 0	 2.625000e+00
-1	 0	 3
-9.875000e-01	 0	 0
-9.875000e-01	 0	 1.500000e+00
-9.875000e-01	 0	 3
-9.875000e-01	 0	 2.250000e+00
-9.875000e-01	 0	 7.500000e-01
-9.833054e-01	 -1.819631e-01	 7.500000e-01
-9.833054e-01	 -1.819631e-01	 0
-9.833054e-01	 -1.819631e-01	 1.500000e+00
-9.833054e-01	 -1.819631e-01	 3.000000e+00
-9.833054e-01	 1.819631e-01	 2.250000e+00
-9.833054e-01	 1.819631e-01	 0
-9.833054e-01	 1.819631e-01	 1.500000e+00
-9.833054e-01	 1.819631e-01	 3.000000e+00
-9.833054e-01	 1.819631e-01	 7.500000e-01
-9.833054e-01	 -1.819631e-01	 2.250000e+00
-9.750000e-01	 0	 7.500000e-01
-9.750000e-01	 0	 1.125000e+00
-9.750000e-01	 0	 0
-9.750000e-01	 0	 3.750000e-01
-9.750000e-01	 0	 1.875000e+00
-9.750000e-01	 0	 2.625000e+00
-9.750000e-01	 0	 3
-9.750000e-01	 0	 1.500000e+00
-9.750000e-01	 0	 2.250000e+00
-9.625000e-01	 0	 1.500000e+00
-9.625000e-01	 0	 2.250000e+00
-9.625000e-01	 0	 0
-9.625000e-01	 0	 7.500000e-01
-9.625000e-01	 0	 3
-9.587227e-01	 -1.774140e-01	 0
-9.587227e-01	 -1.774140e-01	 3.000000e+00
-9.587227e-01	 -1.774140e-01	 1.500000e+00
-9.587227e-01	 1.774140e-01	 0
-9.587227e-01	 1.774140e-01	 3.000000e+00
-9.587227e-01	 1.774140e-01	 1.500000e+00
-9.587227e-01	 1.774140e-01	 7.500000e-01
-9.587227e-01	 -1.774140e-01	 7.500000e-01
-9.587227e-01	 -1.774140e-01	 2.250000e+00
-9.587227e-01	 1.774140e-01	 2.250000e+00
-9.500000e-01	 0	 0
-9.500000e-01	 0	 3.750000e-01
-9.500000e-01	 0	 1.125000e+00
-9.500000e-01	 0	 1.500000e+00
-9.500000e-01	 0	 1.875000e+00
-9.500000e-01	 0	 2.250000e+00
-9.500000e-01	 0	 2.625000e+00
-9.500000e-01	 0	 3
-9.500000e-01	 0	 7.500000e-01
-9.341401e-01	 -1.728649e-01	 1.500000e+00
-9.341401e-01	 -1.728649e-01	 0
-9.341401e-01	 -1.728649e-01	 3.000000e+00
-9.341401e-01	 1.728649e-01	 2.250000e+00
-9.341401e-01	 1.728649e-01	 0
-9.341401e-01	 1.728649e-01	 1.500000e+00
-9.341401e-01	 1.728649e-01	 3.000000e+00
-9.341401e-01	 -1.728649e-01	 7.500000e-01
-9.341401e-01	 -1.728649e-01	 2.250000e+00
-9.341401e-01	 1.728649e-01	 7.500000e-01
-9.297883e-01	 -3.680947e-01	 1.125000e+00
-9.297883e-01	 -3.680947e-01	 0
-9.297883e-01	 -3.680947e-01	 7.500000e-01
-9.297883e-01	 -3.680947e-01	 1.500000e+00
-9.297883e-01	 -3.680947e-01	 1.875000e+00
-9.297883e-01	 -3.680947e-01	 2.250000e+00
-9.297883e-01	 -3.680947e-01	 2.625000e+00
-9.297883e-01	 -3.680947e-01	 3.000000e+00
-9.297883e-01	 -3.680947e-01	 3.750000e-01
-9.297883e-01	 3.680947e-01	 3.750000e-01
-9.297883e-01	 3.680947e-01	 2.250000e+00
-9.297883e-01	 3.680947e-01	 2.625000e+00
-9.297883e-01	 3.680947e-01	 0
-9.297883e-01	 3.680947e-01	 7.500000e-01
-9.297883e-01	 3.680947e-01	 1.500000e+00
-9.297883e-01	 3.680947e-01	 1.875000e+00
-9.297883e-01	 3.680947e-01	 3.000000e+00
-9.297883e-01	 3.680947e-01	 1.125000e+00
-9.181659e-01	 3.634935e-01	 7.500000e-01
-9.181659e-01	 -3.634935e-01	 0
-9.181659e-01	 -3.634935e-01	 7.500000e-01
-9.181659e-01	 -3.634935e-01	 2.250000e+00
-9.181659e-01	 -3.634935e-01	 3
-9.181659e-01	 3.634935e-01	 0
-9.181659e-01	 3.634935e-01	 2.250000e+00
-9.181659e-01	 3.634935e-01	 3
-9.181659e-01	 -3.634935e-01	 1.500000e+00
-9.181659e-01	 3.634935e-01	 1.500000e+00
-9.065436e-01	 -3.588923e-01	 1.125000e+00
-9.065436e-01	 -3.588923e-01	 2.625000e+00
-9.065436e-01	 -3.588923e-01	 0
-9.065436e-01	 -3.588923e-01	 3.750000e-01
-9.065436e-01	 -3.588923e-01	 1.500000e+00
-9.065436e-01	 -3.588923e-01	 3
-9.065436e-01	 3.588923e-01	 2.625000e+00
-9.065436e-01	 3.588923e-01	 1.125000e+00
-9.065436e-01	 3.588923e-01	 0
-9.065436e-01	 3.588923e-01	 3.750000e-01
-9.065436e-01	 3.588923e-01	 3
-9.065436e-01	 -3.588923e-01	 7.500000e-01
-9.065436e-01	 -3.588923e-01	 1.875000e+00
-9.065436e-01	 3.588923e-01	 1.875000e+00
-9.065436e-01	 3.588923e-01	 1.500000e+00
-9.065436e-01	 -3.588923e-01	 2.250000e+00
-9.065436e-01	 3.588923e-01	 7.500000e-01
-9.065436e-01	 3.588923e-01	 2.250000e+00
-8.949212e-01	 3.542912e-01	 1.500000e+00
-8.949212e-01	 -3.542912e-01	 1.500000e+00
-8.949212e-01	 -3.542912e-01	 0
-8.949212e-01	 -3.542912e-01	 3.000000e+00
-8.949212e-01	 3.542912e-01	 0
-8.949212e-01	 3.542912e-01	 3.000000e+00
-8.949212e-01	 -3.542912e-01	 2.250000e+00
-8.949212e-01	 -3.542912e-01	 7.500000e-01
-8.949212e-01	 3.542912e-01	 2.250000e+00
-8.949212e-01	 3.542912e-01	 7.500000e-01
-8.832989e-01	 -3.496900e-01	 1.125000e+00
-8.832989e-01	 -3.496900e-01	 1.875000e+00
-8.832989e-01	 -3.496900e-01	 2.625000e+00
-8.832989e-01	 -3.496900e-01	 2.250000e+00
-8.832989e-01	 3.496900e-01	 1.125000e+00
-8.832989e-01	 -3.496900e-01	 0
-8.832989e-01	 -3.496900e-01	 3.000000e+00
-8.832989e-01	 -3.496900e-01	 3.750000e-01
-8.832989e-01	 -3.496900e-01	 7.500000e-01
-8.832989e-01	 3.496900e-01	 3.750000e-01
-8.832989e-01	 3.496900e-01	 7.500000e-01
-8.832989e-01	 3.496900e-01	 2.250000e+00
-8.832989e-01	 3.496900e-01	 2.625000e+00
-8.832989e-01	 3.496900e-01	 0
-8.832989e-01	 3.496900e-01	 1.875000e+00
-8.832989e-01	 3.496900e-01	 3.000000e+00
-8.832989e-01	 -3.496900e-01	 1.500000e+00
-8.832989e-01	 3.496900e-01	 1.500000e+00
-8.369955e-01	 -5.472098e-01	 0
-8.369955e-01	 -5.472098e-01	 7.500000e-01
-8.369955e-01	 -5.472098e-01	 1.500000e+00
-8.369955e-01	 -5.472098e-01	 2.250000e+00
-8.369955e-01	 -5.472098e-01	 3
-8.369955e-01	 5.472098e-01	 0
-8.369955e-01	 5.472098e-01	 7.500000e-01
-8.369955e-01	 5.472098e-01	 1.500000e+00
-8.369955e-01	 5.472098e-01	 2.250000e+00
-8.369955e-01	 5.472098e-01	 3
-8.160706e-01	 -5.335295e-01	 7.500000e-01
-8.160706e-01	 5.335295e-01	 7.500000e-01
-8.160706e-01	 -5.335295e-01	 1.500000e+00
-8.160706e-01	 -5.335295e-01	 2.250000e+00
-8.160706e-01	 5.335295e-01	 1.500000e+00
-8.160706e-01	 5.335295e-01	 2.250000e+00
-8.160706e-01	 -5.335295e-01	 0
-8.160706e-01	 -5.335295e-01	 3.000000e+00
-8.160706e-01	 5.335295e-01	 0
-8.160706e-01	 5.335295e-01	 3.000000e+00
-7.951457e-01	 -5.198493e-01	 7.500000e-01
-7.951457e-01	 5.198493e-01	 7.500000e-01
-7.951457e-01	 -5.198493e-01	 0
-7.951457e-01	 -5.198493e-01	 1.500000e+00
-7.951457e-01	 -5.198493e-01	 2.250000e+00
-7.951457e-01	 -5.198493e-01	 3
-7.951457e-01	 5.198493e-01	 0
-7.951457e-01	 5.198493e-01	 1.500000e+00
-7.951457e-01	 5.198493e-01	 2.250000e+00
-7.951457e-01	 5.198493e-01	 3
-7.071068e-01	 -7.071068e-01	 0
-7.071068e-01	 -7.071068e-01	 3.750000e-01
-7.071068e-01	 -7.071068e-01	 7.500000e-01
-7.071068e-01	 -7.071068e-01	 1.125000e+00
-7.071068e-01	 -7.071068e-01	 1.500000e+00
-7.071068e-01	 -7.071068e-01	 1.875000e+00
-7.071068e-01	 -7.071068e-01	 2.250000e+00
-7.071068e-01	 -7.071068e-01	 2.625000e+00
-7.071068e-01	 -7.071068e-01	 3.000000e+00
-7.071068e-01	 7.071068e-01	 0
-7.071068e-01	 7.071068e-01	 3.750000e-01
-7.071068e-01	 7.071068e-01	 7.500000e-01
-7.071068e-01	 7.071068e-01	 1.125000e+00
-7.071068e-01	 7.071068e-01	 1.500000e+00
-7.071068e-01	 7.071068e-01	 1.875000e+00
-7.071068e-01	 7.071068e-01	 2.250000e+00
-7.071068e-01	 7.071068e-01	 2.625000e+00
-7.071068e-01	 7.071068e-01	 3.000000e+00
-6.982679e-01	 -6.982679e-01	 7.500000e-01
-6.982679e-01	 6.982679e-01	 7.500000e-01
-6.982679e-01	 -6.982679e-01	 0
-6.982679e-01	 -6.982679e-01	 2.250000e+00
-6.982679e-01	 -6.982679e-01	 3.000000e+00
-6.982679e-01	 6.982679e-01	 0
-6.982679e-01	 6.982679e-01	 2.250000e+00
-6.982679e-01	 6.982679e-01	 3.000000e+00
-6.982679e-01	 -6.982679e-01	 1.500000e+00
-6.982679e-01	 6.982679e-01	 1.500000e+00
-6.894291e-01	 -6.894291e-01	 3.750000e-01
-6.894291e-01	 -6.894291e-01	 2.625000e+00
-6.894291e-01	 -6.894291e-01	 0
-6.894291e-01	 -6.894291e-01	 1.500000e+00
-6.894291e-01	 -6.894291e-01	 2.250000e+00
-6.894291e-01	 -6.894291e-01	 3.000000e+00
-6.894291e-01	 6.894291e-01	 3.750000e-01
-6.894291e-01	 6.894291e-01	 2.625000e+00
-6.894291e-01	 -6.894291e-01	 1.875000e+00
-6.894291e-01	 6.894291e-01	 1.875000e+00
-6.894291e-01	 -6.894291e-01	 7.500000e-01
-6.894291e-01	 -6.894291e-01	 1.125000e+00
-6.894291e-01	 6.894291e-01	 0
-6.894291e-01	 6.894291e-01	 1.500000e+00
-6.894291e-01	 6.894291e-01	 2.250000e+00
-6.894291e-01	 6.894291e-01	 3.000000e+00
-6.894291e-01	 6.894291e-01	 7.500000e-01
-6.894291e-01	 6.894291e-01	 1.125000e+00
-6.805903e-01	 6.805903e-01	 7.500000e-01
-6.805903e-01	 -6.805903e-01	 7.500000e-01
-6.805903e-01	 -6.805903e-01	 0
-6.805903e-01	 -6.805903e-01	 1.500000e+00
-6.805903e-01	 -6.805903e-01	 3.000000e+00
-6.805903e-01	 6.805903e-01	 0
-6.805903e-01	 6.805903e-01	 1.500000e+00
-6.805903e-01	 6.805903e-01	 3.000000e+00
-6.805903e-01	 6.805903e-01	 2.250000e+00
-6.805903e-01	 -6.805903e-01	 2.250000e+00
-6.717514e-01	 -6.717514e-01	 2.625000e+00
-6.717514e-01	 6.717514e-01	 2.625000e+00
-6.717514e-01	 -6.717514e-01	 0
-6.717514e-01	 -6.717514e-01	 3.750000e-01
-6.717514e-01	 -6.717514e-01	 7.500000e-01
-6.717514e-01	 -6.717514e-01	 1.125000e+00
-6.717514e-01	 -6.717514e-01	 1.875000e+00
-6.717514e-01	 -6.717514e-01	 3.000000e+00
-6.717514e-01	 -6.717514e-01	 2.250000e+00
-6.717514e-01	 6.717514e-01	 1.500000e+00
-6.717514e-01	 6.717514e-01	 0
-6.717514e-01	 6.717514e-01	 3.750000e-01
-6.717514e-01	 6.717514e-01	 7.500000e-01
-6.717514e-01	 6.717514e-01	 1.125000e+00
-6.717514e-01	 6.717514e-01	 1.875000e+00
-6.717514e-01	 6.717514e-01	 3.000000e+00
-6.717514e-01	 -6.717514e-01	 1.500000e+00
-6.717514e-01	 6.717514e-01	 2.250000e+00
-5.472098e-01	 -8.369955e-01	 0
-5.472098e-01	 -8.369955e-01	 7.500000e-01
-5.472098e-01	 -8.369955e-01	 1.500000e+00
-5.472098e-01	 -8.369955e-01	 2.250000e+00
-5.472098e-01	 -8.369955e-01	 3
-5.472098e-01	 8.369955e-01	 0
-5.472098e-01	 8.369955e-01	 7.500000e-01
-5.472098e-01	 8.369955e-01	 1.500000e+00
-5.472098e-01	 8.369955e-01	 2.250000e+00
-5.472098e-01	 8.369955e-01	 3
-5.335295e-01	 -8.160706e-01	 1.500000e+00
-5.335295e-01	 -8.160706e-01	 2.250000e+00
-5.335295e-01	 8.160706e-01	 0
-5.335295e-01	 8.160706e-01	 3.000000e+00
[...]
POINT_DATA 832
VECTORS displacement float
0	 0	 2.917958e-02
-5.167101e-11	 -4.254057e-12	 2.917958e-02
-6.528813e-11	 -1.084920e-11	 2.917958e-02
-5.590379e-11	 -1.799736e-11	 2.917958e-02
-4.694590e-11	 -2.108825e-11	 2.917958e-02
-4.822777e-11	 -1.825631e-11	 2.917958e-02
-5.481692e-11	 -1.110279e-11	 2.917958e-02
-4.596668e-11	 -4.019838e-12	 2.917958e-02
0	 0	 2.917958e-02
0	 0	 2.917973e-02
-4.708194e-11	 -2.276775e-11	 2.917973e-02
0	 0	 2.917973e-02
-5.502133e-11	 -1.053747e-11	 2.917973e-02
-6.554498e-11	 -1.235906e-11	 2.917973e-02
-6.123025e-11	 -1.771618e-11	 2.152577e-02
0	 0	 2.152577e-02
-4.348731e-11	 -2.680681e-11	 2.152577e-02
0	 0	 2.152577e-02
-5.082172e-11	 -5.681801e-12	 3.586095e-02
0	 0	 3.586095e-02
-8.446370e-12	 -2.139752e-11	 3.586095e-02
0	 0	 3.586095e-02
-3.253573e-11	 -1.031823e-11	 3.586095e-02
-3.605615e-11	 -1.512359e-11	 2.152577e-02
-6.566795e-11	 -1.383945e-11	 2.917976e-02
-5.606267e-11	 -2.181923e-11	 2.917976e-02
0	 0	 2.917976e-02
-5.191829e-11	 -5.395161e-12	 2.917976e-02
-4.841242e-11	 -1.951893e-11	 2.917976e-02
-4.624896e-11	 -2.565028e-12	 2.917976e-02
0	 0	 2.917976e-02
-4.711234e-11	 -2.441813e-11	 2.917976e-02
-5.514799e-11	 -9.985526e-12	 2.917976e-02
-4.711154e-11	 -2.605827e-11	 2.917980e-02
-5.526825e-11	 -9.432773e-12	 2.917980e-02
0	 0	 2.917980e-02
-6.576661e-11	 -1.531526e-11	 2.917980e-02
0	 0	 2.917980e-02
0	 0	 2.152173e-02
0	 0	 2.152173e-02
-4.427915e-11	 -2.292370e-11	 2.152173e-02
0	 0	 3.586320e-02
0	 0	 3.586320e-02
-9.603112e-12	 -2.788969e-11	 3.586320e-02
-3.367162e-11	 -1.591530e-11	 3.586320e-02
-6.213174e-11	 -1.368924e-11	 2.152173e-02
-3.689806e-11	 -1.148250e-11	 2.152173e-02
-5.139531e-11	 -7.706568e-12	 3.586320e-02
0	 0	 2.917995e-02
-5.190322e-11	 -6.522310e-12	 2.917995e-02
-5.589672e-11	 -2.562082e-11	 2.917995e-02
-4.697108e-11	 -2.772759e-11	 2.917995e-02
-4.836483e-11	 -2.077392e-11	 2.917995e-02
-5.529637e-11	 -8.873682e-12	 2.917995e-02
-4.634910e-11	 -1.108002e-12	 2.917995e-02
0	 0	 2.917995e-02
-6.570115e-11	 -1.681807e-11	 2.917995e-02
-4.464327e-11	 -1.892942e-11	 2.151759e-02
0	 0	 2.151759e-02
0	 0	 2.151759e-02
-5.173764e-11	 -9.794947e-12	 3.586551e-02
0	 0	 3.586551e-02
-1.068038e-11	 -3.446828e-11	 3.586551e-02
0	 0	 3.586551e-02
-6.257473e-11	 -9.536670e-12	 2.151759e-02
-3.761086e-11	 -7.779364e-12	 2.151759e-02
-3.470677e-11	 -2.158650e-11	 3.586551e-02
3.782678e-12	 -1.309126e-11	 1.262203e-02
0	 0	 1.262203e-02
-5.893338e-12	 -6.677259e-12	 1.262203e-02
1.078962e-11	 -1.707379e-11	 1.262203e-02
7.894444e-12	 -1.509247e-11	 1.262203e-02
-6.135994e-13	 -9.038046e-12	 1.262203e-02
-4.722382e-12	 -3.739017e-12	 1.262203e-02
0	 0	 1.262203e-02
-8.121094e-12	 -1.907922e-12	 1.262203e-02
-9.952672e-12	 -7.375807e-12	 4.163706e-02
-2.159263e-11	 -8.395956e-12	 4.163706e-02
-3.432292e-11	 3.193228e-12	 4.163706e-02
0	 0	 4.163706e-02
1.243464e-11	 -2.284597e-11	 4.163706e-02
4.365995e-11	 -3.671664e-11	 4.163706e-02
1.809836e-11	 -2.621027e-11	 4.163706e-02
0	 0	 4.163706e-02
4.078927e-11	 -3.608611e-11	 4.163706e-02
1.143047e-11	 -2.557660e-11	 4.163526e-02
0	 0	 1.262482e-02
-7.721214e-12	 -2.157549e-12	 1.262482e-02
-1.618809e-12	 -6.498930e-12	 1.262482e-02
0	 0	 1.262482e-02
0	 0	 4.163526e-02
-2.255673e-11	 -1.050266e-11	 4.163526e-02
0	 0	 4.163526e-02
9.018033e-12	 -1.252498e-11	 1.262482e-02
4.257175e-11	 -4.017912e-11	 4.163526e-02
4.651357e-14	 -3.547757e-12	 1.262756e-02
-6.077173e-12	 -5.693692e-13	 1.262756e-02
0	 0	 1.262756e-02
-1.038063e-11	 3.710365e-12	 1.262756e-02
7.269462e-12	 -8.053182e-12	 1.262756e-02
0	 0	 1.262756e-02
-3.548467e-11	 7.570576e-13	 4.163330e-02
3.850972e-11	 -4.240396e-11	 4.163330e-02
0	 0	 4.163330e-02
-1.120217e-11	 -1.034216e-11	 4.163330e-02
0	 0	 4.163330e-02
-9.510726e-12	 2.304779e-12	 1.262756e-02
5.110841e-12	 -8.102555e-12	 1.262756e-02
1.593783e-11	 -3.192958e-11	 4.163330e-02
4.139841e-11	 -4.353745e-11	 4.163330e-02
-2.632729e-12	 -3.984139e-12	 1.262756e-02
1.037834e-11	 -2.822691e-11	 4.163330e-02
-2.348833e-11	 -1.258488e-11	 4.163330e-02
4.022225e-11	 -4.688496e-11	 4.163129e-02
5.520295e-12	 -3.601072e-12	 1.263035e-02
0	 0	 1.263035e-02
0	 0	 1.263035e-02
0	 0	 4.163129e-02
0	 0	 4.163129e-02
-3.636386e-12	 -1.494960e-12	 1.263035e-02
-1.129520e-11	 6.741099e-12	 1.263035e-02
-2.442131e-11	 -1.464826e-11	 4.163129e-02
9.311440e-12	 -3.087275e-11	 4.163129e-02
-3.656331e-12	 5.929714e-12	 1.263321e-02
2.307999e-12	 -1.185228e-12	 1.263321e-02
-7.446328e-12	 2.582479e-12	 1.263321e-02
-4.668530e-12	 1.012697e-12	 1.263321e-02
3.595909e-11	 -4.857196e-11	 4.162945e-02
0	 0	 1.263321e-02
0	 0	 1.263321e-02
-1.260417e-11	 9.316846e-12	 1.263321e-02
-1.308112e-11	 1.123402e-11	 1.263321e-02
-1.245765e-11	 -1.329422e-11	 4.162945e-02
8.144345e-12	 -3.350378e-11	 4.162945e-02
-2.534303e-11	 -1.674462e-11	 4.162945e-02
-3.651717e-11	 -1.715568e-12	 4.162945e-02
0	 0	 4.162945e-02
1.363179e-11	 -3.754350e-11	 4.162945e-02
0	 0	 4.162945e-02
3.746817e-12	 8.996307e-13	 1.263321e-02
3.889738e-11	 -5.021396e-11	 4.162945e-02
0	 0	 2.864079e-03
4.794704e-11	 2.376568e-11	 2.864079e-03
5.950050e-11	 1.228031e-11	 2.864079e-03
2.814916e-11	 5.060211e-12	 2.864079e-03
0	 0	 2.864079e-03
0	 0	 4.598427e-02
2.474057e-11	 -3.517305e-11	 4.598427e-02
6.157233e-11	 -5.476429e-11	 4.598427e-02
4.115467e-13	 -1.799695e-11	 4.598427e-02
0	 0	 4.598427e-02
4.512477e-11	 2.822936e-11	 2.862052e-03
2.564290e-11	 -3.390508e-11	 4.598474e-02
5.744464e-11	 1.548408e-11	 2.862052e-03
2.693453e-11	 6.811796e-12	 2.862052e-03
6.262864e-11	 -5.343865e-11	 4.598474e-02
-5.364706e-13	 -1.926360e-11	 4.598474e-02
0	 0	 2.862052e-03
0	 0	 2.862052e-03
0	 0	 4.598474e-02
0	 0	 4.598474e-02
4.199198e-11	 3.255085e-11	 2.859975e-03
2.620189e-11	 -3.239557e-11	 4.598522e-02
0	 0	 2.859975e-03
5.500711e-11	 1.846298e-11	 2.859975e-03
2.552903e-11	 8.455605e-12	 2.859975e-03
0	 0	 2.859975e-03
0	 0	 4.598522e-02
6.319670e-11	 -5.176555e-11	 4.598522e-02
-1.646804e-12	 -2.045218e-11	 4.598522e-02
0	 0	 4.598522e-02
0	 0	 -7.227572e-03
3.876486e-11	 3.190111e-11	 -7.227572e-03
5.914450e-11	 4.009536e-11	 -7.227572e-03
6.532788e-11	 3.150364e-11	 -7.227572e-03
5.756572e-11	 1.627872e-11	 -7.227572e-03
4.262080e-11	 6.576566e-12	 -7.227572e-03
2.940942e-11	 7.117600e-12	 -7.227572e-03
1.696722e-11	 8.181533e-12	 -7.227572e-03
0	 0	 -7.227572e-03
0	 0	 4.849386e-02
-1.201485e-11	 -5.603979e-12	 4.849386e-02
-7.810303e-12	 -1.500103e-11	 4.849386e-02
9.252639e-12	 -2.351152e-11	 4.849386e-02
1.875012e-11	 -2.730767e-11	 4.849386e-02
1.279760e-11	 -2.488508e-11	 4.849386e-02
-1.796932e-12	 -1.705676e-11	 4.849386e-02
-8.880421e-12	 -7.665315e-12	 4.849386e-02
0	 0	 4.849386e-02
5.951589e-11	 4.008657e-11	 -7.227475e-03
-5.162725e-12	 -1.232762e-11	 4.849320e-02
0	 0	 -7.227475e-03
3.004613e-11	 6.578804e-12	 -7.227475e-03
0	 0	 -7.227475e-03
0	 0	 4.849320e-02
-1.004917e-12	 -1.630990e-11	 4.849320e-02
0	 0	 4.849320e-02
5.901259e-11	 1.499649e-11	 -7.227475e-03
2.241555e-11	 -2.383252e-11	 4.849320e-02
3.864713e-11	 3.228851e-11	 -7.227345e-03
1.739093e-11	 7.810686e-12	 -7.227345e-03
0	 0	 -7.227345e-03
6.036860e-11	 1.365279e-11	 -7.227345e-03
3.064319e-11	 5.999200e-12	 -7.227345e-03
0	 0	 -7.227345e-03
-9.981822e-12	 -3.576138e-12	 4.849233e-02
-9.000150e-12	 -7.705700e-12	 4.849233e-02
4.498299e-11	 4.254656e-12	 -7.227345e-03
1.767373e-11	 -2.005762e-11	 4.849233e-02
5.979790e-11	 4.000707e-11	 -7.227345e-03
6.710082e-11	 3.000107e-11	 -7.227345e-03
0	 0	 4.849233e-02
2.598015e-11	 -2.035692e-11	 4.849233e-02
-2.515588e-13	 -1.553534e-11	 4.849233e-02
0	 0	 4.849233e-02
-2.574954e-12	 -9.720125e-12	 4.849233e-02
1.620904e-11	 -1.670013e-11	 4.849233e-02
2.161856e-14	 -7.105143e-12	 4.849145e-02
6.007661e-11	 3.991984e-11	 -7.227213e-03
0	 0	 -7.227213e-03
6.169527e-11	 1.230308e-11	 -7.227213e-03
0	 0	 -7.227213e-03
0	 0	 4.849145e-02
2.952000e-11	 -1.689302e-11	 4.849145e-02
0	 0	 4.849145e-02
4.920185e-13	 -1.476078e-11	 4.849145e-02
3.122108e-11	 5.429564e-12	 -7.227213e-03
1.773056e-11	 7.373552e-12	 -7.227113e-03
-9.156276e-12	 -7.730587e-12	 4.849077e-02
0	 0	 -7.227113e-03
3.837687e-11	 3.253111e-11	 -7.227113e-03
6.025476e-11	 3.973108e-11	 -7.227113e-03
6.863457e-11	 2.828802e-11	 -7.227113e-03
4.718293e-11	 1.804593e-12	 -7.227113e-03
0	 0	 -7.227113e-03
3.175481e-11	 4.797665e-12	 -7.227113e-03
3.303563e-11	 -1.332924e-11	 4.849077e-02
0	 0	 4.849077e-02
-7.938842e-12	 -1.603008e-12	 4.849077e-02
2.643235e-12	 -4.467284e-12	 4.849077e-02
2.305533e-11	 -9.852375e-12	 4.849077e-02
2.239537e-11	 -1.512522e-11	 4.849077e-02
0	 0	 4.849077e-02
6.293900e-11	 1.083261e-11	 -7.227113e-03
1.194220e-12	 -1.393796e-11	 4.849077e-02
0	 0	 -1.701269e-02
4.355875e-11	 2.681850e-11	 -1.701269e-02
2.562546e-11	 -2.065145e-11	 -1.701269e-02
1.473562e-11	 -1.100458e-11	 -1.701269e-02
0	 0	 -1.701269e-02
0	 0	 4.894672e-02
-3.103159e-11	 2.114661e-11	 4.894672e-02
-2.689149e-11	 3.167874e-11	 4.894672e-02
-1.555571e-11	 1.939770e-12	 4.894672e-02
0	 0	 4.894672e-02
3.166252e-11	 -2.472037e-11	 -1.701071e-02
1.780948e-11	 -1.305078e-11	 -1.701071e-02
0	 0	 4.894659e-02
0	 0	 4.894659e-02
-2.063803e-11	 3.589427e-11	 4.894659e-02
-1.274109e-11	 3.871577e-12	 4.894659e-02
4.734718e-11	 2.448500e-11	 -1.701071e-02
0	 0	 -1.701071e-02
0	 0	 -1.701071e-02
-2.920334e-11	 2.237242e-11	 4.894659e-02
-2.714495e-11	 2.326293e-11	 4.894646e-02
5.104022e-11	 2.192789e-11	 -1.700869e-02
0	 0	 -1.700869e-02
3.770770e-11	 -2.890277e-11	 -1.700869e-02
2.085830e-11	 -1.519923e-11	 -1.700869e-02
0	 0	 -1.700869e-02
0	 0	 4.894646e-02
-1.418344e-11	 3.993850e-11	 4.894646e-02
-9.946465e-12	 5.869308e-12	 4.894646e-02
0	 0	 4.894646e-02
1.046981e-11	 -5.123148e-11	 -2.588874e-02
-3.467855e-11	 5.124370e-11	 4.737674e-02
0	 0	 -2.588874e-02
1.980243e-11	 -1.489890e-11	 -2.588874e-02
-7.225336e-13	 -7.705390e-11	 -2.588874e-02
-4.647242e-12	 -7.299778e-11	 -2.588874e-02
0	 0	 -2.588874e-02
0	 0	 4.737674e-02
-2.312015e-11	 1.586180e-11	 4.737674e-02
-3.970108e-11	 7.135019e-11	 4.737674e-02
-3.851744e-11	 6.353182e-11	 4.737674e-02
-2.796816e-11	 2.917861e-11	 4.737674e-02
-1.316910e-11	 2.903613e-12	 4.737674e-02
0	 0	 4.737674e-02
1.691859e-11	 5.692471e-12	 -2.588874e-02
-3.666945e-13	 -4.198496e-11	 -2.588874e-02
2.488429e-12	 -1.416613e-11	 -2.588874e-02
-9.427793e-12	 -7.819979e-12	 4.737674e-02
2.740143e-12	 -7.869999e-11	 -2.589111e-02
-3.866206e-11	 7.208102e-11	 4.737572e-02
2.299879e-11	 -1.611946e-11	 -2.589111e-02
0	 0	 -2.589111e-02
1.739962e-12	 -4.292038e-11	 -2.589111e-02
0	 0	 -2.589111e-02
0	 0	 4.737572e-02
-2.518747e-11	 1.510805e-11	 4.737572e-02
-2.640871e-11	 2.985629e-11	 4.737572e-02
0	 0	 4.737572e-02
3.810784e-12	 -4.379978e-11	 -2.589336e-02
-2.487362e-11	 3.048920e-11	 4.737450e-02
-3.559523e-11	 5.106174e-11	 4.737450e-02
-1.207716e-11	 3.375256e-12	 4.737450e-02
0	 0	 -2.589336e-02
2.059638e-11	 4.335345e-12	 -2.589336e-02
0	 0	 -2.589336e-02
6.175067e-12	 -8.020640e-11	 -2.589336e-02
0	 0	 4.737450e-02
-1.276109e-11	 -9.212323e-12	 4.737450e-02
-3.757977e-11	 7.267369e-11	 4.737450e-02
0	 0	 4.737450e-02
1.766734e-11	 -5.420998e-11	 -2.589336e-02
1.008985e-12	 -7.551976e-11	 -2.589336e-02
2.615079e-11	 -1.730761e-11	 -2.589336e-02
-2.718771e-11	 1.429421e-11	 4.737450e-02
-3.502207e-11	 6.521363e-11	 4.737450e-02
4.639085e-12	 -1.504966e-11	 -2.589336e-02
9.600541e-12	 -8.169721e-11	 -2.589568e-02
5.877417e-12	 -4.468338e-11	 -2.589568e-02
-2.333506e-11	 3.112108e-11	 4.737325e-02
0	 0	 4.737325e-02
0	 0	 4.737325e-02
-3.651349e-11	 7.325323e-11	 4.737325e-02
0	 0	 -2.589568e-02
0	 0	 -2.589568e-02
2.928347e-11	 -1.849312e-11	 -2.589568e-02
-2.917806e-11	 1.347325e-11	 4.737325e-02
2.487723e-11	 -5.700090e-11	 -2.589810e-02
0	 0	 -2.589810e-02
6.708166e-12	 -7.779097e-11	 -2.589810e-02
0	 0	 -2.589810e-02
1.312220e-11	 -8.306699e-11	 -2.589810e-02
0	 0	 4.737219e-02
0	 0	 4.737219e-02
-3.639348e-11	 5.058816e-11	 4.737219e-02
-3.144614e-11	 6.662985e-11	 4.737219e-02
-1.101387e-11	 3.863195e-12	 4.737219e-02
2.422894e-11	 2.936172e-12	 -2.589810e-02
3.246215e-11	 -1.967051e-11	 -2.589810e-02
7.985465e-12	 -4.552800e-11	 -2.589810e-02
6.772163e-12	 -1.592113e-11	 -2.589810e-02
-3.536460e-11	 7.367377e-11	 4.737219e-02
-1.608095e-11	 -1.062509e-11	 4.737219e-02
-2.176572e-11	 3.171675e-11	 4.737219e-02
-3.115653e-11	 1.253935e-11	 4.737219e-02
1.449165e-11	 -4.717373e-11	 -3.343615e-02
-9.946855e-12	 -2.484473e-11	 4.405253e-02
0	 0	 -3.343615e-02
2.589650e-12	 -1.023819e-10	 -3.343615e-02
0	 0	 -3.343615e-02
0	 0	 4.405253e-02
-3.197970e-11	 6.967470e-11	 4.405253e-02
0	 0	 4.405253e-02
1.121559e-12	 -5.806086e-11	 -3.343615e-02
-2.583463e-11	 3.934395e-11	 4.405253e-02
1.584797e-11	 -4.748345e-11	 -3.343262e-02
0	 0	 -3.343262e-02
0	 0	 -3.343262e-02
-1.582594e-11	 -2.606046e-11	 4.405365e-02
-2.668218e-11	 3.929393e-11	 4.405365e-02
0	 0	 4.405365e-02
0	 0	 4.405365e-02
1.201205e-13	 -5.800354e-11	 -3.343262e-02
-3.557340e-11	 6.924022e-11	 4.405365e-02
5.739476e-13	 -1.022782e-10	 -3.343262e-02
-3.911426e-11	 6.838571e-11	 4.405480e-02
0	 0	 -3.342899e-02
-1.323434e-12	 -1.014903e-10	 -3.342899e-02
0	 0	 -3.342899e-02
0	 0	 4.405480e-02
0	 0	 4.405480e-02
-8.128149e-13	 -5.755531e-11	 -3.342899e-02
1.730284e-11	 -4.741523e-11	 -3.342899e-02
-2.177495e-11	 -2.724985e-11	 4.405480e-02
-2.748176e-11	 3.896074e-11	 4.405480e-02
0	 0	 -3.940087e-02
1.407838e-11	 -1.507305e-11	 -3.940087e-02
2.119820e-11	 -3.465328e-11	 -3.940087e-02
2.010263e-11	 -4.974280e-11	 -3.940087e-02
1.605439e-11	 -5.260383e-11	 -3.940087e-02
1.235429e-11	 -4.667978e-11	 -3.940087e-02
9.768242e-12	 -2.901936e-11	 -3.940087e-02
6.090876e-12	 -9.967654e-12	 -3.940087e-02
0	 0	 -3.940087e-02
0	 0	 -3.940108e-02
1.030530e-11	 -5.279081e-11	 -3.940108e-02
0	 0	 -3.940108e-02
6.152086e-12	 -2.910046e-11	 -3.940108e-02
1.872751e-11	 -3.478472e-11	 -3.940108e-02
1.630510e-11	 -3.484355e-11	 -3.940112e-02
1.139284e-11	 -4.993946e-11	 -3.940112e-02
0	 0	 -3.940112e-02
1.233308e-11	 -1.510543e-11	 -3.940112e-02
2.008125e-12	 -4.689345e-11	 -3.940112e-02
2.677864e-12	 -9.988968e-12	 -3.940112e-02
0	 0	 -3.940112e-02
4.652071e-12	 -5.289765e-11	 -3.940112e-02
2.590589e-12	 -2.912702e-11	 -3.940112e-02
-9.866012e-13	 -5.299586e-11	 -3.940117e-02
-9.601131e-13	 -2.913640e-11	 -3.940117e-02
0	 0	 -3.940117e-02
1.388135e-11	 -3.488236e-11	 -3.940117e-02
0	 0	 -3.940117e-02
0	 0	 -3.940138e-02
1.060643e-11	 -1.504525e-11	 -3.940138e-02
2.731191e-12	 -4.990105e-11	 -3.940138e-02
-6.687719e-12	 -5.299396e-11	 -3.940138e-02
-8.284871e-12	 -4.690843e-11	 -3.940138e-02
-4.547835e-12	 -2.907693e-11	 -3.940138e-02
-7.116920e-13	 -9.961330e-12	 -3.940138e-02
0	 0	 -3.940138e-02
1.143672e-11	 -3.483151e-11	 -3.940138e-02
-1.865188e-11	 -6.475800e-11	 3.940138e-02
0	 0	 3.940138e-02
-7.443990e-12	 -6.217762e-11	 3.940138e-02
-3.037277e-11	 -2.023916e-11	 3.940138e-02
-3.847929e-11	 2.497052e-11	 3.940138e-02
-3.815228e-11	 3.828988e-11	 3.940138e-02
-2.958415e-11	 1.715115e-11	 3.940138e-02
-1.528059e-11	 -4.101683e-12	 3.940138e-02
0	 0	 3.940138e-02
0	 0	 3.940117e-02
-1.613447e-11	 -6.476301e-11	 3.940117e-02
0	 0	 3.940117e-02
-3.449191e-11	 2.483620e-11	 3.940117e-02
-2.704558e-11	 1.716256e-11	 3.940117e-02
-3.055368e-11	 2.470079e-11	 3.940112e-02
-2.453682e-11	 1.715028e-11	 3.940112e-02
0	 0	 3.940112e-02
-5.250764e-12	 -6.225339e-11	 3.940112e-02
-3.105324e-11	 3.823053e-11	 3.940112e-02
-1.296908e-11	 -4.119707e-12	 3.940112e-02
0	 0	 3.940112e-02
-1.364746e-11	 -6.458442e-11	 3.940112e-02
-2.348917e-11	 -2.035568e-11	 3.940112e-02
-1.116562e-11	 -6.438824e-11	 3.940108e-02
-2.202645e-11	 1.712898e-11	 3.940108e-02
0	 0	 3.940108e-02
-2.661083e-11	 2.457037e-11	 3.940108e-02
0	 0	 3.940108e-02
0	 0	 3.940087e-02
-3.042244e-12	 -6.198940e-11	 3.940087e-02
-8.620709e-12	 -6.404055e-11	 3.940087e-02
-1.657108e-11	 -2.029197e-11	 3.940087e-02
-2.258268e-11	 2.443408e-11	 3.940087e-02
-2.392192e-11	 3.806477e-11	 3.940087e-02
-1.946424e-11	 1.709061e-11	 3.940087e-02
-1.064255e-11	 -4.083611e-12	 3.940087e-02
0	 0	 3.940087e-02
8.725960e-12	 -2.670299e-13	 -4.405480e-02
-5.641747e-12	 1.752590e-11	 -4.405480e-02
-1.100945e-11	 -7.312107e-11	 3.342899e-02
-2.826360e-11	 -1.015502e-11	 3.342899e-02
0	 0	 -4.405480e-02
0	 0	 -4.405480e-02
0	 0	 3.342899e-02
-3.231824e-11	 -9.907689e-12	 3.342899e-02
0	 0	 3.342899e-02
-7.876697e-12	 1.852698e-11	 -4.405480e-02
-3.035163e-11	 -1.068859e-11	 3.343262e-02
6.318321e-13	 2.039352e-11	 -4.405365e-02
-2.570478e-11	 -1.081782e-11	 3.343262e-02
0	 0	 -4.405365e-02
0	 0	 -4.405365e-02
1.346384e-11	 6.880195e-13	 -4.405365e-02
-8.146944e-14	 1.873822e-11	 -4.405365e-02
0	 0	 3.343262e-02
0	 0	 3.343262e-02
-1.452062e-11	 -7.285792e-11	 3.343262e-02
5.470591e-12	 1.976886e-11	 -4.405253e-02
-2.312661e-11	 -1.126116e-11	 3.343615e-02
0	 0	 -4.405253e-02
9.118586e-12	 2.196615e-11	 -4.405253e-02
0	 0	 -4.405253e-02
0	 0	 3.343615e-02
-2.834322e-11	 -1.109044e-11	 3.343615e-02
0	 0	 3.343615e-02
1.817453e-11	 1.589189e-12	 -4.405253e-02
-1.787179e-11	 -7.200287e-11	 3.343615e-02
2.789215e-12	 3.006000e-11	 -4.737219e-02
-9.234384e-12	 4.801120e-11	 -4.737219e-02
6.183550e-12	 1.151945e-11	 -4.737219e-02
-1.512270e-11	 6.495575e-11	 -4.737219e-02
1.225093e-11	 -2.081279e-11	 2.589810e-02
1.192611e-11	 -2.405809e-11	 2.589810e-02
-2.512631e-11	 -1.742471e-11	 2.589810e-02
-1.245481e-11	 -1.552368e-11	 2.589810e-02
-7.508286e-12	 5.196060e-11	 -4.737219e-02
-1.544950e-11	 6.364817e-11	 -4.737219e-02
-2.792553e-12	 2.587384e-11	 -4.737219e-02
0	 0	 -4.737219e-02
0	 0	 -4.737219e-02
-2.278833e-11	 -5.331628e-12	 2.589810e-02
0	 0	 2.589810e-02
-3.009608e-11	 -8.755843e-12	 2.589810e-02
0	 0	 2.589810e-02
-4.861550e-12	 -1.342466e-11	 2.589810e-02
4.169379e-12	 3.070434e-11	 -4.737325e-02
6.995094e-12	 -2.213776e-11	 2.589568e-02
0	 0	 2.589568e-02
0	 0	 2.589568e-02
-1.340519e-11	 6.573801e-11	 -4.737325e-02
0	 0	 -4.737325e-02
0	 0	 -4.737325e-02
-8.208186e-12	 4.852081e-11	 -4.737325e-02
-2.563079e-11	 -1.731119e-11	 2.589568e-02
-2.463546e-11	 -4.682474e-12	 2.589568e-02
-1.367762e-11	 -1.510543e-11	 2.589336e-02
5.566406e-12	 3.126606e-11	 -4.737449e-02
-1.249639e-11	 6.499149e-11	 -4.737449e-02
2.138547e-12	 -2.020708e-11	 2.589336e-02
-3.163508e-11	 -8.307019e-12	 2.589336e-02
-1.198146e-11	 -1.068945e-11	 2.589336e-02
0	 0	 -4.737449e-02
7.447003e-12	 1.204457e-11	 -4.737449e-02
-1.163418e-11	 6.634660e-11	 -4.737449e-02
0	 0	 -4.737450e-02
-2.644764e-11	 -3.975360e-12	 2.589336e-02
0	 0	 2.589336e-02
5.514231e-12	 -1.812873e-11	 2.589336e-02
0	 0	 2.589336e-02
-4.007144e-12	 5.349984e-11	 -4.737449e-02
-2.050859e-12	 2.621920e-11	 -4.737450e-02
-7.135193e-12	 4.890812e-11	 -4.737450e-02
-2.608866e-11	 -1.710855e-11	 2.589336e-02
0	 0	 -4.737572e-02
6.972975e-12	 3.182585e-11	 -4.737572e-02
-6.068242e-12	 4.928207e-11	 -4.737572e-02
0	 0	 -4.737572e-02
0	 0	 2.589111e-02
-2.655540e-11	 -1.689343e-11	 2.589111e-02
0	 0	 2.589111e-02
-2.732471e-12	 -1.826966e-11	 2.589111e-02
-9.848255e-12	 6.695126e-11	 -4.737572e-02
-2.824679e-11	 -3.280081e-12	 2.589111e-02
8.742785e-12	 1.253051e-11	 -4.737674e-02
-1.223101e-12	 -1.538548e-11	 2.588874e-02
-2.699734e-11	 -1.660306e-11	 2.588874e-02
-1.485315e-11	 -1.457536e-11	 2.588874e-02
0	 0	 -4.737674e-02
8.418083e-12	 3.233359e-11	 -4.737674e-02
-8.002520e-12	 6.742601e-11	 -4.737674e-02
-9.414101e-12	 6.602222e-11	 -4.737674e-02
-4.942603e-12	 4.957049e-11	 -4.737674e-02
-1.255931e-12	 2.645360e-11	 -4.737674e-02
0	 0	 -4.737674e-02
0	 0	 2.588874e-02
-7.681901e-12	 -1.626826e-11	 2.588874e-02
-3.008448e-11	 -2.515072e-12	 2.588874e-02
-3.313507e-11	 -7.705972e-12	 2.588874e-02
0	 0	 2.588874e-02
-3.893812e-13	 5.478412e-11	 -4.737674e-02
-1.911176e-11	 -7.855590e-12	 2.588874e-02
0	 0	 -4.894646e-02
-6.103806e-12	 6.867968e-11	 -4.894646e-02
7.094861e-13	 4.610906e-11	 -4.894646e-02
0	 0	 -4.894646e-02
0	 0	 1.700869e-02
-9.139401e-12	 1.962181e-11	 1.700869e-02