# vtk DataFile Version 3.0
Unstructured Grid Example
ASCII
DATASET UNSTRUCTURED_GRID
POINTS 832 float
-1	 0	 0
-1	 0	 3.750000e-01
-1	 0	 7.500000e-01
-1	 0	 1.125000e+00
-1	 0	 1.500000e+00
-1	 0	 1.875000e+00
-1	 0	 2.250000e+00
-1	 0	 2.625000e+00
-1	 0	 3
-9.875000e-01	 0	 0
-9.875000e-01	 0	 1.500000e+00
-9.875000e-01	 0	 3
-9.875000e-01	 0	 2.250000e+00
-9.875000e-01	 0	 7.500000e-01
-9.833054e-01	 -1.819631e-01	 7.500000e-01
-9.833054e-01	 -1.819631e-01	 0
-9.833054e-01	 -1.819631e-01	 1.500000e+00
-9.833054e-01	 -1.819631e-01	 3.000000e+00
-9.833054e-01	 1.819631e-01	 2.250000e+00
-9.833054e-01	 1.819631e-01	 0
-9.833054e-01	 1.819631e-01	 1.500000e+00
-9.833054e-01	 1.819631e-01	 3.000000e+00
-9.833054e-01	 1.819631e-01	 7.500000e-01
-9.833054e-01	 -1.819631e-01	 2.250000e+00
-9.750000e-01	 0	 7.500000e-01
-9.750000e-01	 0	 1.125000e+00
-9.750000e-01	 0	 0
-9.750000e-01	 0	 3.750000e-01
-9.750000e-01	 0	 1.875000e+00
-9.750000e-01	 0	 2.625000e+00
-9.750000e-01	 0	 3
-9.750000e-01	 0	 1.500000e+00
-9.750000e-01	 0	 2.250000e+00
-9.625000e-01	 0	 1.500000e+00
-9.625000e-01	 0	 2.250000e+00
-9.625000e-01	 0	 0
-9.625000e-01	 0	 7.500000e-01
-9.625000e-01	 0	 3
-9.587227e-01	 -1.774140e-01	 0
-9.587227e-01	 -1.774140e-01	 3.000000e+00
-9.587227e-01	 -1.774140e-01	 1.500000e+00
-9.587227e-01	 1.774140e-01	 0
-9.587227e-01	 1.774140e-01	 3.000000e+00
-9.587227e-01	 1.774140e-01	 1.500000e+00
-9.587227e-01	 1.774140e-01	 7.500000e-01
-9.587227e-01	 -1.774140e-01	 7.500000e-01
-9.587227e-01	 -1.774140e-01	 2.250000e+00
-9.587227e-01	 1.774140e-01	 2.250000e+00
-9.500000e-01	 0	 0
-9.500000e-01	 0	 3.750000e-01
-9.500000e-01	 0	 1.125000e+00
-9.500000e-01	 0	 1.500000e+00
-9.500000e-01	 0	 1.875000e+00
-9.500000e-01	 0	 2.250000e+00
-9.500000e-01	 0	 2.625000e+00
-9.500000e-01	 0	 3
-9.500000e-01	 0	 7.500000e-01
-9.341401e-01	 -1.728649e-01	 1.500000e+00
-9.341401e-01	 -1.728649e-01	 0
-9.341401e-01	 -1.728649e-01	 3.000000e+00
-9.341401e-01	 1.728649e-01	 2.250000e+00
-9.341401e-01	 1.728649e-01	 0
-9.341401e-01	 1.728649e-01	 1.500000e+00
-9.341401e-01	 1.728649e-01	 3.000000e+00
-9.341401e-01	 -1.728649e-01	 7.500000e-01
-9.341401e-01	 -1.728649e-01	 2.250000e+00
-9.341401e-01	 1.728649e-01	 7.500000e-01
-9.297883e-01	 -3.680947e-01	 1.125000e+00
-9.297883e-01	 -3.680947e-01	 0
-9.297883e-01	 -3.680947e-01	 7.500000e-01
-9.297883e-01	 -3.680947e-01	 1.500000e+00
-9.297883e-01	 -3.680947e-01	 1.875000e+00
-9.297883e-01	 -3.680947e-01	 2.250000e+00
-9.297883e-01	 -3.680947e-01	 2.625000e+00
-9.297883e-01	 -3.680947e-01	 3.000000e+00
-9.297883e-01	 -3.680947e-01	 3.750000e-01
-9.297883e-01	 3.680947e-01	 3.750000e-01
-9.297883e-01	 3.680947e-01	 2.250000e+00
-9.297883e-01	 3.680947e-01	 2.625000e+00
-9.297883e-01	 3.680947e-01	 0
-9.297883e-01	 3.680947e-01	 7.500000e-01
-9.297883e-01	 3.680947e-01	 1.500000e+00
-9.297883e-01	 3.680947e-01	 1.875000e+00
-9.297883e-01	 3.680947e-01	 3.000000e+00
-9.297883e-01	 3.680947e-01	 1.125000e+00
-9.181659e-01	 3.634935e-01	 7.500000e-01
-9.181659e-01	 -3.634935e-01	 0
-9.181659e-01	 -3.634935e-01	 7.500000e-01
-9.181659e-01	 -3.634935e-01	 2.250000e+00
-9.181659e-01	 -3.634935e-01	 3
-9.181659e-01	 3.634935e-01	 0
-9.181659e-01	 3.634935e-01	 2.250000e+00
-9.181659e-01	 3.634935e-01	 3
-9.181659e-01	 -3.634935e-01	 1.500000e+00
-9.181659e-01	 3.634935e-01	 1.500000e+00
-9.065436e-01	 -3.588923e-01	 1.125000e+00
-9.065436e-01	 -3.588923e-01	 2.625000e+00
-9.065436e-01	 -3.588923e-01	 0
-9.065436e-01	 -3.588923e-01	 3.750000e-01
-9.065436e-01	 -3.588923e-01	 1.500000e+00
-9.065436e-01	 -3.588923e-01	 3
-9.065436e-01	 3.588923e-01	 2.625000e+00
-9.065436e-01	 3.588923e-01	 1.125000e+00
-9.065436e-01	 3.588923e-01	 0
-9.065436e-01	 3.588923e-01	 3.750000e-01
-9.065436e-01	 3.588923e-01	 3
-9.065436e-01	 -3.588923e-01	 7.500000e-01
-9.065436e-01	 -3.588923e-01	 1.875000e+00
-9.065436e-01	 3.588923e-01	 1.875000e+00
-9.065436e-01	 3.588923e-01	 1.500000e+00
-9.065436e-01	 -3.588923e-01	 2.250000e+00
-9.065436e-01	 3.588923e-01	 7.500000e-01
-9.065436e-01	 3.588923e-01	 2.250000e+00
-8.949212e-01	 3.542912e-01	 1.500000e+00
-8.949212e-01	 -3.542912e-01	 1.500000e+00
-8.949212e-01	 -3.542912e-01	 0
-8.949212e-01	 -3.542912e-01	 3.000000e+00
-8.949212e-01	 3.542912e-01	 0
-8.949212e-01	 3.542912e-01	 3.000000e+00
-8.949212e-01	 -3.542912e-01	 2.250000e+00
-8.949212e-01	 -3.542912e-01	 7.500000e-01
-8.949212e-01	 3.542912e-01	 2.250000e+00
-8.949212e-01	 3.542912e-01	 7.500000e-01
-8.832989e-01	 -3.496900e-01	 1.125000e+00
-8.832989e-01	 -3.496900e-01	 1.875000e+00
-8.832989e-01	 -3.496900e-01	 2.625000e+00
-8.832989e-01	 -3.496900e-01	 2.250000e+00
-8.832989e-01	 3.496900e-01	 1.125000e+00
-8.832989e-01	 -3.496900e-01	 0
-8.832989e-01	 -3.496900e-01	 3.000000e+00
-8.832989e-01	 -3.496900e-01	 3.750000e-01
-8.832989e-01	 -3.496900e-01	 7.500000e-01
-8.832989e-01	 3.496900e-01	 3.750000e-01
-8.832989e-01	 3.496900e-01	 7.500000e-01
-8.832989e-01	 3.496900e-01	 2.250000e+00
-8.832989e-01	 3.496900e-01	 2.625000e+00
-8.832989e-01	 3.496900e-01	 0
-8.832989e-01	 3.496900e-01	 1.875000e+00
-8.832989e-01	 3.496900e-01	 3.000000e+00
-8.832989e-01	 -3.496900e-01	 1.500000e+00
-8.832989e-01	 3.496900e-01	 1.500000e+00
-8.369955e-01	 -5.472098e-01	 0
-8.369955e-01	 -5.472098e-01	 7.500000e-01
-8.369955e-01	 -5.472098e-01	 1.500000e+00
-8.369955e-01	 -5.472098e-01	 2.250000e+00
-8.369955e-01	 -5.472098e-01	 3
-8.369955e-01	 5.472098e-01	 0
-8.369955e-01	 5.472098e-01	 7.500000e-01
-8.369955e-01	 5.472098e-01	 1.500000e+00
-8.369955e-01	 5.472098e-01	 2.250000e+00
-8.369955e-01	 5.472098e-01	 3
-8.160706e-01	 -5.335295e-01	 7.500000e-01
-8.160706e-01	 5.335295e-01	 7.500000e-01
-8.160706e-01	 -5.335295e-01	 1.500000e+00
-8.160706e-01	 -5.335295e-01	 2.250000e+00
-8.160706e-01	 5.335295e-01	 1.500000e+00
-8.160706e-01	 5.335295e-01	 2.250000e+00
-8.160706e-01	 -5.335295e-01	 0
-8.160706e-01	 -5.335295e-01	 3.000000e+00
-8.160706e-01	 5.335295e-01	 0
-8.160706e-01	 5.335295e-01	 3.000000e+00
-7.951457e-01	 -5.198493e-01	 7.500000e-01
-7.951457e-01	 5.198493e-01	 7.500000e-01
-7.951457e-01	 -5.198493e-01	 0
-7.951457e-01	 -5.198493e-01	 1.500000e+00
-7.951457e-01	 -5.198493e-01	 2.250000e+00
-7.951457e-01	 -5.198493e-01	 3
-7.951457e-01	 5.198493e-01	 0
-7.951457e-01	 5.198493e-01	 1.500000e+00
-7.951457e-01	 5.198493e-01	 2.250000e+00
-7.951457e-01	 5.198493e-01	 3
-7.071068e-01	 -7.071068e-01	 0
-7.071068e-01	 -7.071068e-01	 3.750000e-01
-7.071068e-01	 -7.071068e-01	 7.500000e-01
-7.071068e-01	 -7.071068e-01	 1.125000e+00
-7.071068e-01	 -7.071068e-01	 1.500000e+00
-7.071068e-01	 -7.071068e-01	 1.875000e+00
-7.071068e-01	 -7.071068e-01	 2.250000e+00
-7.071068e-01	 -7.071068e-01	 2.625000e+00
-7.071068e-01	 -7.071068e-01	 3.000000e+00
-7.071068e-01	 7.071068e-01	 0
-7.071068e-01	 7.071068e-01	 3.750000e-01
-7.071068e-01	 7.071068e-01	 7.500000e-01
-7.071068e-01	 7.071068e-01	 1.125000e+00
-7.071068e-01	 7.071068e-01	 1.500000e+00
-7.071068e-01	 7.071068e-01	 1.875000e+00
-7.071068e-01	 7.071068e-01	 2.250000e+00
-7.071068e-01	 7.071068e-01	 2.625000e+00
-7.071068e-01	 7.071068e-01	 3.000000e+00
-6.982679e-01	 -6.982679e-01	 7.500000e-01
-6.982679e-01	 6.982679e-01	 7.500000e-01
-6.982679e-01	 -6.982679e-01	 0
-6.982679e-01	 -6.982679e-01	 2.250000e+00
-6.982679e-01	 -6.982679e-01	 3.000000e+00
-6.982679e-01	 6.982679e-01	 0
-6.982679e-01	 6.982679e-01	 2.250000e+00
-6.982679e-01	 6.982679e-01	 3.000000e+00
-6.982679e-01	 -6.982679e-01	 1.500000e+00
-6.982679e-01	 6.982679e-01	 1.500000e+00
-6.894291e-01	 -6.894291e-01	 3.750000e-01
-6.894291e-01	 -6.894291e-01	 2.625000e+00
-6.894291e-01	 -6.894291e-01	 0
-6.894291e-01	 -6.894291e-01	 1.500000e+00
-6.894291e-01	 -6.894291e-01	 2.250000e+00
-6.894291e-01	 -6.894291e-01	 3.000000e+00
-6.894291e-01	 6.894291e-01	 3.750000e-01
-6.894291e-01	 6.894291e-01	 2.625000e+00
-6.894291e-01	 -6.894291e-01	 1.875000e+00
-6.894291e-01	 6.894291e-01	 1.875000e+00
-6.894291e-01	 -6.894291e-01	 7.500000e-01
-6.894291e-01	 -6.894291e-01	 1.125000e+00
-6.894291e-01	 6.894291e-01	 0
-6.894291e-01	 6.894291e-01	 1.500000e+00
-6.894291e-01	 6.894291e-01	 2.250000e+00
-6.894291e-01	 6.894291e-01	 3.000000e+00
-6.894291e-01	 6.894291e-01	 7.500000e-01
-6.894291e-01	 6.894291e-01	 1.125000e+00
-6.805903e-01	 6.805903e-01	 7.500000e-01
-6.805903e-01	 -6.805903e-01	 7.500000e-01
-6.805903e-01	 -6.805903e-01	 0
-6.805903e-01	 -6.805903e-01	 1.500000e+00
-6.805903e-01	 -6.805903e-01	 3.000000e+00
-6.805903e-01	 6.805903e-01	 0
-6.805903e-01	 6.805903e-01	 1.500000e+00
-6.805903e-01	 6.805903e-01	 3.000000e+00
-6.805903e-01	 6.805903e-01	 2.250000e+00
-6.805903e-01	 -6.805903e-01	 2.250000e+00
-6.717514e-01	 -6.717514e-01	 2.625000e+00
-6.717514e-01	 6.717514e-01	 2.625000e+00
-6.717514e-01	 -6.717514e-01	 0
-6.717514e-01	 -6.717514e-01	 3.750000e-01
-6.717514e-01	 -6.717514e-01	 7.500000e-01
-6.717514e-01	 -6.717514e-01	 1.125000e+00
-6.717514e-01	 -6.717514e-01	 1.875000e+00
-6.717514e-01	 -6.717514e-01	 3.000000e+00
-6.717514e-01	 -6.717514e-01	 2.250000e+00
-6.717514e-01	 6.717514e-01	 1.500000e+00
-6.717514e-01	 6.717514e-01	 0
-6.717514e-01	 6.717514e-01	 3.750000e-01
-6.717514e-01	 6.717514e-01	 7.500000e-01
-6.717514e-01	 6.717514e-01	 1.125000e+00
-6.717514e-01	 6.717514e-01	 1.875000e+00
-6.717514e-01	 6.717514e-01	 3.000000e+00
-6.717514e-01	 -6.717514e-01	 1.500000e+00
-6.717514e-01	 6.717514e-01	 2.250000e+00
-5.472098e-01	 -8.369955e-01	 0
-5.472098e-01	 -8.369955e-01	 7.500000e-01
-5.472098e-01	 -8.369955e-01	 1.500000e+00
-5.472098e-01	 -8.369955e-01	 2.250000e+00
-5.472098e-01	 -8.369955e-01	 3
-5.472098e-01	 8.369955e-01	 0
-5.472098e-01	 8.369955e-01	 7.500000e-01
-5.472098e-01	 8.369955e-01	 1.500000e+00
-5.472098e-01	 8.369955e-01	 2.250000e+00
-5.472098e-01	 8.369955e-01	 3
-5.335295e-01	 -8.160706e-01	 1.500000e+00
-5.335295e-01	 -8.160706e-01	 2.250000e+00
-5.335295e-01	 8.160706e-01	 0
-5.335295e-01	 8.160706e-01	 3.000000e+00
[...]
POINT_DATA 832
SCALARS pres_adim float 1
LOOKUP_TABLE default
0
3.750000e-01
7.500000e-01
1.125000e+00
1.500000e+00
1.875000e+00
2.250000e+00
2.625000e+00
3
0
1.500000e+00
3
2.250000e+00
7.500000e-01
7.500000e-01
0
1.500000e+00
3.000000e+00
2.250000e+00
0
1.500000e+00
3.000000e+00
7.500000e-01
2.250000e+00
7.500000e-01
1.125000e+00
0
3.750000e-01
1.875000e+00
2.625000e+00
3
1.500000e+00
2.250000e+00
1.500000e+00
2.250000e+00
0
7.500000e-01
3
0
3.000000e+00
1.500000e+00
0
3.000000e+00
1.500000e+00
7.500000e-01
7.500000e-01
2.250000e+00
2.250000e+00
0
3.750000e-01
1.125000e+00
1.500000e+00
1.875000e+00
2.250000e+00
2.625000e+00
3
7.500000e-01
1.500000e+00
0
3.000000e+00
2.250000e+00
0
1.500000e+00
3.000000e+00
7.500000e-01
2.250000e+00
7.500000e-01
1.125000e+00
0
7.500000e-01
1.500000e+00
1.875000e+00
2.250000e+00
2.625000e+00
3.000000e+00
3.750000e-01
3.750000e-01
2.250000e+00
2.625000e+00
0
7.500000e-01
1.500000e+00
1.875000e+00
3.000000e+00
1.125000e+00
7.500000e-01
0
7.500000e-01
2.250000e+00
3
0
2.250000e+00
3
1.500000e+00
1.500000e+00
1.125000e+00
2.625000e+00
0
3.750000e-01
1.500000e+00
3
2.625000e+00
1.125000e+00
0
3.750000e-01
3
7.500000e-01
1.875000e+00
1.875000e+00
1.500000e+00
2.250000e+00
7.500000e-01
2.250000e+00
1.500000e+00
1.500000e+00
0
3.000000e+00
0
3.000000e+00
2.250000e+00
7.500000e-01
2.250000e+00
7.500000e-01
1.125000e+00
1.875000e+00
2.625000e+00
2.250000e+00
1.125000e+00
0
3.000000e+00
3.750000e-01
7.500000e-01
3.750000e-01
7.500000e-01
2.250000e+00
2.625000e+00
0
1.875000e+00
3.000000e+00
1.500000e+00
1.500000e+00
0
7.500000e-01
1.500000e+00
2.250000e+00
3
0
7.500000e-01
1.500000e+00
2.250000e+00
3
7.500000e-01
7.500000e-01
1.500000e+00
2.250000e+00
1.500000e+00
2.250000e+00
0
3.000000e+00
0
3.000000e+00
7.500000e-01
7.500000e-01
0
1.500000e+00
2.250000e+00
3
0
1.500000e+00
2.250000e+00
3
0
3.750000e-01
7.500000e-01
1.125000e+00
1.500000e+00
1.875000e+00
2.250000e+00
2.625000e+00
3.000000e+00
0
3.750000e-01
7.500000e-01
1.125000e+00
1.500000e+00
1.875000e+00
2.250000e+00
2.625000e+00
3.000000e+00
7.500000e-01
7.500000e-01
0
2.250000e+00
3.000000e+00
0
2.250000e+00
3.000000e+00
1.500000e+00
1.500000e+00
3.750000e-01
2.625000e+00
0
1.500000e+00
2.250000e+00
3.000000e+00
3.750000e-01
2.625000e+00
1.875000e+00
1.875000e+00
7.500000e-01
1.125000e+00
0
1.500000e+00
2.250000e+00
3.000000e+00
7.500000e-01
1.125000e+00
7.500000e-01
7.500000e-01
0
1.500000e+00
3.000000e+00
0
1.500000e+00
3.000000e+00
2.250000e+00
2.250000e+00
2.625000e+00
2.625000e+00
0
3.750000e-01
7.500000e-01
1.125000e+00
1.875000e+00
3.000000e+00
2.250000e+00
1.500000e+00
0
3.750000e-01
7.500000e-01
1.125000e+00
1.875000e+00
3.000000e+00
1.500000e+00
2.250000e+00
0
7.500000e-01
1.500000e+00
2.250000e+00
3
0
7.500000e-01
1.500000e+00
2.250000e+00
3
1.500000e+00
2.250000e+00
0
3.000000e+00
1.500000e+00
2.250000e+00
7.500000e-01
0
3.000000e+00
7.500000e-01
7.500000e-01
7.500000e-01
0
1.500000e+00
2.250000e+00
3
0
1.500000e+00
2.250000e+00
3
1.125000e+00
1.125000e+00
0
7.500000e-01
1.500000e+00
1.875000e+00
3.000000e+00
0
7.500000e-01
1.500000e+00
1.875000e+00
2.250000e+00
2.625000e+00
3.000000e+00
3.750000e-01
2.250000e+00
2.625000e+00
3.750000e-01
1.500000e+00
1.500000e+00
7.500000e-01
0
2.250000e+00
3
0
7.500000e-01
2.250000e+00
3
2.250000e+00
2.250000e+00
1.125000e+00
2.625000e+00
0
3.750000e-01
3
1.500000e+00
0
3.750000e-01
1.500000e+00
3
1.125000e+00
1.875000e+00
7.500000e-01
7.500000e-01
1.875000e+00
2.625000e+00
1.500000e+00
2.250000e+00
2.250000e+00
0
3.000000e+00
1.500000e+00
0
3.000000e+00
7.500000e-01
7.500000e-01
1.125000e+00
0
1.875000e+00
3.000000e+00
1.500000e+00
0
3.000000e+00
1.125000e+00
1.875000e+00
2.625000e+00
3.750000e-01
7.500000e-01
2.250000e+00
2.625000e+00
1.500000e+00
3.750000e-01
2.250000e+00
7.500000e-01
7.500000e-01
7.500000e-01
0
1.500000e+00
3.000000e+00
0
1.500000e+00
3.000000e+00
2.250000e+00
2.250000e+00
7.500000e-01
0
3.000000e+00
7.500000e-01
2.250000e+00
0
3.000000e+00
2.250000e+00
1.500000e+00
1.500000e+00
1.500000e+00
0
1.500000e+00
3.000000e+00
0
3.000000e+00
2.250000e+00
7.500000e-01
7.500000e-01
2.250000e+00
0
3.750000e-01
7.500000e-01
1.125000e+00
1.500000e+00
1.875000e+00
2.250000e+00
2.625000e+00
3
0
1.500000e+00
3
2.250000e+00
7.500000e-01
7.500000e-01
1.125000e+00
0
3.750000e-01
1.875000e+00
2.625000e+00
3
1.500000e+00
2.250000e+00
1.500000e+00
2.250000e+00
0
7.500000e-01
3
0
3.750000e-01
1.125000e+00
1.500000e+00
1.875000e+00
2.250000e+00
2.625000e+00
3
7.500000e-01
7.500000e-01
0
3.750000e-01
1.125000e+00
1.500000e+00
1.875000e+00
2.250000e+00
2.625000e+00
3
0
7.500000e-01
3
1.500000e+00
2.250000e+00
1.500000e+00
2.250000e+00
0
3.750000e-01
1.875000e+00
2.625000e+00
3
7.500000e-01
1.125000e+00
7.500000e-01
2.250000e+00
0
1.500000e+00
3
0
3.750000e-01
7.500000e-01
1.125000e+00
1.500000e+00
1.875000e+00
2.250000e+00
2.625000e+00
3
7.500000e-01
2.250000e+00
7.500000e-01
2.250000e+00
0
3.000000e+00
0
1.500000e+00
3.000000e+00
1.500000e+00
1.500000e+00
1.500000e+00
2.250000e+00
0
3.000000e+00
7.500000e-01
2.250000e+00
0
3.000000e+00
7.500000e-01
2.250000e+00
2.250000e+00
0
1.500000e+00
3.000000e+00
0
1.500000e+00
3.000000e+00
7.500000e-01
7.500000e-01
7.500000e-01
2.250000e+00
3.750000e-01
1.500000e+00
3.750000e-01
7.500000e-01
2.250000e+00
2.625000e+00
1.125000e+00
1.875000e+00
2.625000e+00
0
3.000000e+00
1.500000e+00
0
1.875000e+00
3.000000e+00
1.125000e+00
7.500000e-01
7.500000e-01
0
3.000000e+00
1.500000e+00
0
3.000000e+00
2.250000e+00
2.250000e+00
1.500000e+00
2.625000e+00
7.500000e-01
1.875000e+00
7.500000e-01
1.875000e+00
1.125000e+00
0
3.750000e-01
1.500000e+00
3
1.500000e+00
0
3.750000e-01
3
1.125000e+00
2.625000e+00
2.250000e+00
2.250000e+00
0
7.500000e-01
2.250000e+00
3
0
2.250000e+00
3
7.500000e-01
1.500000e+00
1.500000e+00
3.750000e-01
3.750000e-01
2.250000e+00
2.625000e+00
0
7.500000e-01
1.500000e+00
1.875000e+00
2.250000e+00
2.625000e+00
3.000000e+00
0
7.500000e-01
1.500000e+00
1.875000e+00
3.000000e+00
1.125000e+00
1.125000e+00
0
1.500000e+00
2.250000e+00
3
0
1.500000e+00
2.250000e+00
3
7.500000e-01
7.500000e-01
7.500000e-01
0
3.000000e+00
7.500000e-01
1.500000e+00
2.250000e+00
0
3.000000e+00
1.500000e+00
2.250000e+00
0
7.500000e-01
1.500000e+00
2.250000e+00
3
0
7.500000e-01
1.500000e+00
2.250000e+00
3
2.250000e+00
1.500000e+00
0
3.750000e-01
7.500000e-01
1.125000e+00
1.875000e+00
3.000000e+00
1.500000e+00
2.250000e+00
0
3.750000e-01
7.500000e-01
1.125000e+00
1.875000e+00
3.000000e+00
2.625000e+00
2.625000e+00
2.250000e+00
2.250000e+00
0
1.500000e+00
3.000000e+00
0
1.500000e+00
3.000000e+00
7.500000e-01
7.500000e-01
7.500000e-01
1.125000e+00
0
1.500000e+00
2.250000e+00
3.000000e+00
7.500000e-01
1.125000e+00
1.875000e+00
1.875000e+00
3.750000e-01
2.625000e+00
0
1.500000e+00
2.250000e+00
3.000000e+00
3.750000e-01
2.625000e+00
1.500000e+00
1.500000e+00
0
2.250000e+00
3.000000e+00
0
2.250000e+00
3.000000e+00
7.500000e-01
7.500000e-01
0
3.750000e-01
7.500000e-01
1.125000e+00
1.500000e+00
1.875000e+00
2.250000e+00
2.625000e+00
3.000000e+00
0
3.750000e-01
7.500000e-01
1.125000e+00
1.500000e+00
1.875000e+00
2.250000e+00
2.625000e+00
3.000000e+00
0
1.500000e+00
2.250000e+00
3
0
1.500000e+00
2.250000e+00
3
7.500000e-01
7.500000e-01
0
3.000000e+00
0
3.000000e+00
1.500000e+00
2.250000e+00
1.500000e+00
2.250000e+00
7.500000e-01
7.500000e-01
0
7.500000e-01
1.500000e+00
2.250000e+00
3
0
7.500000e-01
1.500000e+00
2.250000e+00
3
1.500000e+00
1.500000e+00
0
1.875000e+00
3.000000e+00
3.750000e-01
7.500000e-01
2.250000e+00
2.625000e+00
7.500000e-01
3.750000e-01
0
3.000000e+00
1.125000e+00
2.250000e+00
1.125000e+00
1.875000e+00
2.625000e+00
7.500000e-01
2.250000e+00
7.500000e-01
2.250000e+00
0
3.000000e+00
0
3.000000e+00
1.500000e+00
1.500000e+00
2.250000e+00
7.500000e-01
2.250000e+00
1.500000e+00
1.875000e+00
7.500000e-01
1.875000e+00
0
3.750000e-01
3
1.125000e+00
2.625000e+00
0
3.750000e-01
1.500000e+00
3
1.125000e+00
2.625000e+00
1.500000e+00
1.500000e+00
0
2.250000e+00
3
0
7.500000e-01
2.250000e+00
3
7.500000e-01
1.125000e+00
0
7.500000e-01
1.500000e+00
1.875000e+00
3.000000e+00
3.750000e-01
2.250000e+00
2.625000e+00
3.750000e-01
0
7.500000e-01
1.500000e+00
1.875000e+00
2.250000e+00
2.625000e+00
3.000000e+00
1.125000e+00
7.500000e-01
7.500000e-01
2.250000e+00
0
1.500000e+00
3.000000e+00
2.250000e+00
0
3.000000e+00
1.500000e+00
7.500000e-01
0
3.750000e-01
1.125000e+00
1.500000e+00
1.875000e+00
2.250000e+00
2.625000e+00
3
2.250000e+00
7.500000e-01
2.250000e+00
7.500000e-01
1.500000e+00
0
3.000000e+00
1.500000e+00
0
3.000000e+00
0
7.500000e-01
3
1.500000e+00
2.250000e+00
1.500000e+00
2.250000e+00
0
3.750000e-01
1.875000e+00
2.625000e+00
3
7.500000e-01
1.125000e+00
2.250000e+00
7.500000e-01
0
1.500000e+00
3.000000e+00
2.250000e+00
0
1.500000e+00
3.000000e+00
7.500000e-01
7.500000e-01
2.250000e+00
0
1.500000e+00
3
0
3.750000e-01
7.500000e-01
1.125000e+00
1.500000e+00
1.875000e+00
2.250000e+00
2.625000e+00
3
 
