# vtk DataFile Version 3.0
Unstructured Grid Example
ASCII
DATASET UNSTRUCTURED_GRID
POINTS 1641 float
-9.500000e-01	 0	 0
-9.500000e-01	 0	 3.750000e-01
-9.500000e-01	 0	 1.125000e+00
-9.500000e-01	 0	 1.500000e+00
-9.500000e-01	 0	 1.875000e+00
-9.500000e-01	 0	 2.250000e+00
-9.500000e-01	 0	 2.625000e+00
-9.500000e-01	 0	 3
-9.500000e-01	 0	 7.500000e-01
-9.341401e-01	 -1.728649e-01	 1.500000e+00
-9.341401e-01	 -1.728649e-01	 0
-9.341401e-01	 -1.728649e-01	 3.000000e+00
-9.341401e-01	 1.728649e-01	 2.250000e+00
-9.341401e-01	 1.728649e-01	 0
-9.341401e-01	 1.728649e-01	 1.500000e+00
-9.341401e-01	 1.728649e-01	 3.000000e+00
-9.341401e-01	 -1.728649e-01	 7.500000e-01
-9.341401e-01	 -1.728649e-01	 2.250000e+00
-9.341401e-01	 1.728649e-01	 7.500000e-01
-8.832989e-01	 -3.496900e-01	 1.125000e+00
-8.832989e-01	 -3.496900e-01	 1.875000e+00
-8.832989e-01	 -3.496900e-01	 2.625000e+00
-8.832989e-01	 -3.496900e-01	 2.250000e+00
-8.832989e-01	 3.496900e-01	 1.125000e+00
-8.832989e-01	 -3.496900e-01	 0
-8.832989e-01	 -3.496900e-01	 3.000000e+00
-8.832989e-01	 -3.496900e-01	 3.750000e-01
-8.832989e-01	 -3.496900e-01	 7.500000e-01
-8.832989e-01	 3.496900e-01	 3.750000e-01
-8.832989e-01	 3.496900e-01	 7.500000e-01
-8.832989e-01	 3.496900e-01	 2.250000e+00
-8.832989e-01	 3.496900e-01	 2.625000e+00
-8.832989e-01	 3.496900e-01	 0
-8.832989e-01	 3.496900e-01	 1.875000e+00
-8.832989e-01	 3.496900e-01	 3.000000e+00
-8.832989e-01	 -3.496900e-01	 1.500000e+00
-8.832989e-01	 3.496900e-01	 1.500000e+00
-8.787500e-01	 0	 2.250000e+00
-8.787500e-01	 0	 0
-8.787500e-01	 0	 1.500000e+00
-8.787500e-01	 0	 3
-8.787500e-01	 0	 7.500000e-01
-8.149622e-01	 -3.223238e-01	 7.500000e-01
-8.149622e-01	 3.223238e-01	 7.500000e-01
-8.149622e-01	 -3.223238e-01	 2.250000e+00
-8.149622e-01	 3.223238e-01	 2.250000e+00
-8.149622e-01	 -3.223238e-01	 0
-8.149622e-01	 -3.223238e-01	 1.500000e+00
-8.149622e-01	 -3.223238e-01	 3
-8.149622e-01	 3.223238e-01	 1.500000e+00
-8.149622e-01	 3.223238e-01	 0
-8.149622e-01	 3.223238e-01	 3
-8.075000e-01	 0	 7.500000e-01
-8.075000e-01	 0	 2.250000e+00
-8.075000e-01	 0	 3.750000e-01
-8.075000e-01	 0	 1.875000e+00
-8.075000e-01	 0	 2.625000e+00
-8.075000e-01	 0	 0
-8.075000e-01	 0	 1.125000e+00
-8.075000e-01	 0	 1.500000e+00
-8.075000e-01	 0	 3
-7.951457e-01	 -5.198493e-01	 7.500000e-01
-7.951457e-01	 5.198493e-01	 7.500000e-01
-7.951457e-01	 -5.198493e-01	 0
-7.951457e-01	 -5.198493e-01	 1.500000e+00
-7.951457e-01	 -5.198493e-01	 2.250000e+00
-7.951457e-01	 -5.198493e-01	 3
-7.951457e-01	 5.198493e-01	 0
-7.951457e-01	 5.198493e-01	 1.500000e+00
-7.951457e-01	 5.198493e-01	 2.250000e+00
-7.951457e-01	 5.198493e-01	 3
-7.894916e-01	 -1.451644e-01	 7.500000e-01
-7.894916e-01	 1.451644e-01	 7.500000e-01
-7.894916e-01	 1.451644e-01	 0
-7.894916e-01	 1.451644e-01	 3
-7.894916e-01	 -1.451644e-01	 0
-7.894916e-01	 -1.451644e-01	 1.500000e+00
-7.894916e-01	 -1.451644e-01	 2.250000e+00
-7.894916e-01	 -1.451644e-01	 3
-7.894916e-01	 1.451644e-01	 1.500000e+00
-7.894916e-01	 1.451644e-01	 2.250000e+00
-7.430021e-01	 -2.929055e-01	 1.500000e+00
-7.430021e-01	 2.929055e-01	 1.500000e+00
-7.430021e-01	 -2.929055e-01	 2.250000e+00
-7.430021e-01	 -2.929055e-01	 0
-7.430021e-01	 -2.929055e-01	 3.000000e+00
-7.430021e-01	 2.929055e-01	 3.750000e-01
-7.430021e-01	 -2.929055e-01	 3.750000e-01
-7.430021e-01	 -2.929055e-01	 1.125000e+00
-7.430021e-01	 -2.929055e-01	 1.875000e+00
-7.430021e-01	 -2.929055e-01	 2.625000e+00
-7.430021e-01	 2.929055e-01	 1.125000e+00
-7.430021e-01	 2.929055e-01	 0
-7.430021e-01	 2.929055e-01	 1.875000e+00
-7.430021e-01	 2.929055e-01	 2.250000e+00
-7.430021e-01	 2.929055e-01	 2.625000e+00
-7.430021e-01	 2.929055e-01	 3.000000e+00
-7.430021e-01	 2.929055e-01	 7.500000e-01
-7.430021e-01	 -2.929055e-01	 7.500000e-01
-7.362500e-01	 0	 0
-7.362500e-01	 0	 7.500000e-01
-7.362500e-01	 0	 1.500000e+00
-7.362500e-01	 0	 2.250000e+00
-7.362500e-01	 0	 3
-6.717514e-01	 -6.717514e-01	 2.625000e+00
-6.717514e-01	 6.717514e-01	 2.625000e+00
-6.717514e-01	 -6.717514e-01	 0
-6.717514e-01	 -6.717514e-01	 3.750000e-01
-6.717514e-01	 -6.717514e-01	 7.500000e-01
-6.717514e-01	 -6.717514e-01	 1.125000e+00
-6.717514e-01	 -6.717514e-01	 1.875000e+00
-6.717514e-01	 -6.717514e-01	 3.000000e+00
-6.717514e-01	 -6.717514e-01	 2.250000e+00
-6.717514e-01	 6.717514e-01	 1.500000e+00
-6.717514e-01	 6.717514e-01	 0
-6.717514e-01	 6.717514e-01	 3.750000e-01
-6.717514e-01	 6.717514e-01	 7.500000e-01
-6.717514e-01	 6.717514e-01	 1.125000e+00
-6.717514e-01	 6.717514e-01	 1.875000e+00
-6.717514e-01	 6.717514e-01	 3.000000e+00
-6.717514e-01	 -6.717514e-01	 1.500000e+00
-6.717514e-01	 6.717514e-01	 2.250000e+00
-6.682985e-01	 -2.618048e-01	 0
-6.682985e-01	 -2.618048e-01	 1.500000e+00
-6.682985e-01	 -2.618048e-01	 3
-6.682985e-01	 -2.618048e-01	 7.500000e-01
-6.682985e-01	 -2.618048e-01	 2.250000e+00
-6.682985e-01	 2.618048e-01	 7.500000e-01
-6.682985e-01	 2.618048e-01	 2.250000e+00
-6.682985e-01	 2.618048e-01	 0
-6.682985e-01	 2.618048e-01	 1.500000e+00
-6.682985e-01	 2.618048e-01	 3
-6.665713e-01	 -4.348738e-01	 2.250000e+00
-6.665713e-01	 -4.348738e-01	 7.500000e-01
-6.665713e-01	 4.348738e-01	 7.500000e-01
-6.665713e-01	 4.348738e-01	 2.250000e+00
-6.665713e-01	 -4.348738e-01	 0
-6.665713e-01	 -4.348738e-01	 3
-6.665713e-01	 4.348738e-01	 0
-6.665713e-01	 4.348738e-01	 1.500000e+00
-6.665713e-01	 4.348738e-01	 3
-6.665713e-01	 -4.348738e-01	 1.500000e+00
-6.650000e-01	 0	 7.500000e-01
-6.650000e-01	 0	 0
-6.650000e-01	 0	 3.750000e-01
-6.650000e-01	 0	 1.125000e+00
-6.650000e-01	 0	 1.500000e+00
-6.650000e-01	 0	 1.875000e+00
-6.650000e-01	 0	 2.625000e+00
-6.650000e-01	 0	 3
-6.650000e-01	 0	 2.250000e+00
-6.383743e-01	 -1.144482e-01	 0
-6.383743e-01	 -1.144482e-01	 3.000000e+00
-6.383743e-01	 -1.144482e-01	 7.500000e-01
-6.383743e-01	 -1.144482e-01	 1.500000e+00
-6.383743e-01	 -1.144482e-01	 2.250000e+00
-6.383743e-01	 1.144482e-01	 7.500000e-01
-6.383743e-01	 1.144482e-01	 1.500000e+00
-6.383743e-01	 1.144482e-01	 0
-6.383743e-01	 1.144482e-01	 2.250000e+00
-6.383743e-01	 1.144482e-01	 3.000000e+00
-6.189903e-01	 -6.189903e-01	 0
-6.189903e-01	 -6.189903e-01	 1.500000e+00
-6.189903e-01	 -6.189903e-01	 3.000000e+00
-6.189903e-01	 6.189903e-01	 2.250000e+00
-6.189903e-01	 6.189903e-01	 0
-6.189903e-01	 6.189903e-01	 1.500000e+00
-6.189903e-01	 6.189903e-01	 3.000000e+00
-6.189903e-01	 -6.189903e-01	 2.250000e+00
-6.189903e-01	 -6.189903e-01	 7.500000e-01
-6.189903e-01	 6.189903e-01	 7.500000e-01
-5.937500e-01	 0	 0
-5.937500e-01	 0	 7.500000e-01
-5.937500e-01	 0	 1.500000e+00
-5.937500e-01	 0	 2.250000e+00
-5.937500e-01	 0	 3
-5.917666e-01	 2.294176e-01	 1.875000e+00
-5.917666e-01	 2.294176e-01	 2.250000e+00
-5.917666e-01	 -2.294176e-01	 2.250000e+00
-5.917666e-01	 -2.294176e-01	 0
-5.917666e-01	 -2.294176e-01	 2.625000e+00
-5.917666e-01	 -2.294176e-01	 3
-5.917666e-01	 -2.294176e-01	 1.500000e+00
-5.917666e-01	 -2.294176e-01	 1.875000e+00
-5.917666e-01	 2.294176e-01	 0
-5.917666e-01	 2.294176e-01	 2.625000e+00
-5.917666e-01	 2.294176e-01	 3
-5.917666e-01	 2.294176e-01	 1.500000e+00
-5.917666e-01	 -2.294176e-01	 3.750000e-01
-5.917666e-01	 -2.294176e-01	 7.500000e-01
-5.917666e-01	 -2.294176e-01	 1.125000e+00
-5.917666e-01	 2.294176e-01	 7.500000e-01
-5.917666e-01	 2.294176e-01	 1.125000e+00
-5.917666e-01	 2.294176e-01	 3.750000e-01
-5.620800e-01	 5.620800e-01	 1.125000e+00
-5.620800e-01	 -5.620800e-01	 1.125000e+00
-5.620800e-01	 -5.620800e-01	 3.750000e-01
-5.620800e-01	 -5.620800e-01	 7.500000e-01
-5.620800e-01	 -5.620800e-01	 1.875000e+00
-5.620800e-01	 -5.620800e-01	 2.625000e+00
-5.620800e-01	 5.620800e-01	 3.750000e-01
-5.620800e-01	 5.620800e-01	 7.500000e-01
-5.620800e-01	 5.620800e-01	 1.875000e+00
-5.620800e-01	 -5.620800e-01	 0
-5.620800e-01	 -5.620800e-01	 1.500000e+00
-5.620800e-01	 -5.620800e-01	 2.250000e+00
-5.620800e-01	 -5.620800e-01	 3
-5.620800e-01	 5.620800e-01	 0
-5.620800e-01	 5.620800e-01	 1.500000e+00
-5.620800e-01	 5.620800e-01	 2.250000e+00
-5.620800e-01	 5.620800e-01	 3
-5.620800e-01	 5.620800e-01	 2.625000e+00
-5.250231e-01	 -3.396892e-01	 7.500000e-01
-5.250231e-01	 3.396892e-01	 1.500000e+00
-5.250231e-01	 3.396892e-01	 2.250000e+00
-5.250231e-01	 3.396892e-01	 7.500000e-01
-5.250231e-01	 -3.396892e-01	 2.250000e+00
-5.250231e-01	 -3.396892e-01	 0
-5.250231e-01	 -3.396892e-01	 1.500000e+00
-5.250231e-01	 -3.396892e-01	 3.000000e+00
-5.250231e-01	 3.396892e-01	 0
-5.250231e-01	 3.396892e-01	 3.000000e+00
-5.225000e-01	 0	 1.500000e+00
-5.225000e-01	 0	 2.250000e+00
-5.225000e-01	 0	 0
-5.225000e-01	 0	 3.750000e-01
-5.225000e-01	 0	 7.500000e-01
-5.225000e-01	 0	 1.125000e+00
-5.225000e-01	 0	 1.875000e+00
-5.225000e-01	 0	 2.625000e+00
-5.225000e-01	 0	 3
-5.198493e-01	 7.951457e-01	 7.500000e-01
-5.198493e-01	 -7.951457e-01	 7.500000e-01
-5.198493e-01	 -7.951457e-01	 0
-5.198493e-01	 -7.951457e-01	 1.500000e+00
-5.198493e-01	 -7.951457e-01	 2.250000e+00
-5.198493e-01	 -7.951457e-01	 3
-5.198493e-01	 7.951457e-01	 0
-5.198493e-01	 7.951457e-01	 1.500000e+00
-5.198493e-01	 7.951457e-01	 2.250000e+00
-5.198493e-01	 7.951457e-01	 3
-5.143216e-01	 -1.961513e-01	 2.250000e+00
-5.143216e-01	 1.961513e-01	 7.500000e-01
-5.143216e-01	 1.961513e-01	 1.500000e+00
-5.143216e-01	 -1.961513e-01	 7.500000e-01
-5.143216e-01	 -1.961513e-01	 0
-5.143216e-01	 -1.961513e-01	 3.000000e+00
-5.143216e-01	 -1.961513e-01	 1.500000e+00
-5.143216e-01	 1.961513e-01	 2.250000e+00
-5.143216e-01	 1.961513e-01	 0
-5.143216e-01	 1.961513e-01	 3.000000e+00
-5.020120e-01	 -5.020120e-01	 7.500000e-01
-5.020120e-01	 -5.020120e-01	 1.500000e+00
-5.020120e-01	 5.020120e-01	 7.500000e-01
-5.020120e-01	 5.020120e-01	 1.500000e+00
-5.020120e-01	 -5.020120e-01	 0
-5.020120e-01	 -5.020120e-01	 2.250000e+00
-5.020120e-01	 -5.020120e-01	 3.000000e+00
-5.020120e-01	 5.020120e-01	 0
-5.020120e-01	 5.020120e-01	 2.250000e+00
-5.020120e-01	 5.020120e-01	 3.000000e+00
-4.847636e-01	 8.158725e-02	 7.500000e-01
-4.847636e-01	 -8.158725e-02	 7.500000e-01
[...]
POINT_DATA 1641
SCALARS pres_adim float 1
LOOKUP_TABLE default
-4.855892e-02
-4.855892e-02
-4.855892e-02
-4.855892e-02
-4.855892e-02
-4.855892e-02
-4.855892e-02
-4.855892e-02
-4.855892e-02
-4.537782e-02
-4.537782e-02
-4.537782e-02
-4.537782e-02
-4.537782e-02
-4.537782e-02
-4.537782e-02
-4.537782e-02
-4.537782e-02
-4.537782e-02
-3.536635e-02
-3.536635e-02
-3.536635e-02
-3.536635e-02
-3.536635e-02
-3.536635e-02
-3.536635e-02
-3.536635e-02
-3.536635e-02
-3.536635e-02
-3.536635e-02
-3.536635e-02
-3.536635e-02
-3.536635e-02
-3.536635e-02
-3.536635e-02
-3.536635e-02
-3.536635e-02
-4.788215e-02
-4.788215e-02
-4.788215e-02
-4.788215e-02
-4.788215e-02
-3.487351e-02
-3.487351e-02
-3.487351e-02
-3.487351e-02
-3.487351e-02
-3.487351e-02
-3.487351e-02
-3.487351e-02
-3.487351e-02
-3.487351e-02
-4.575910e-02
-4.575910e-02
-4.575910e-02
-4.575910e-02
-4.575910e-02
-4.575910e-02
-4.575910e-02
-4.575910e-02
-4.575910e-02
-1.949765e-02
-1.949765e-02
-1.949765e-02
-1.949765e-02
-1.949765e-02
-1.949765e-02
-1.949765e-02
-1.949765e-02
-1.949765e-02
-1.949765e-02
-4.262562e-02
-4.262562e-02
-4.262562e-02
-4.262562e-02
-4.262562e-02
-4.262562e-02
-4.262562e-02
-4.262562e-02
-4.262562e-02
-4.262562e-02
-3.318499e-02
-3.318499e-02
-3.318499e-02
-3.318499e-02
-3.318499e-02
-3.318499e-02
-3.318499e-02
-3.318499e-02
-3.318499e-02
-3.318499e-02
-3.318499e-02
-3.318499e-02
-3.318499e-02
-3.318499e-02
-3.318499e-02
-3.318499e-02
-3.318499e-02
-3.318499e-02
-4.250893e-02
-4.250893e-02
-4.250893e-02
-4.250893e-02
-4.250893e-02
-1.938769e-12
1.915516e-12
-1.903698e-12
-1.955827e-12
-2.060546e-12
-2.082535e-12
-1.872235e-12
-1.986531e-12
-1.866018e-12
1.972160e-12
2.098523e-12
2.042494e-12
1.935739e-12
1.900404e-12
2.045445e-12
1.861249e-12
-1.981994e-12
2.016250e-12
-3.044418e-02
-3.044418e-02
-3.044418e-02
-3.044418e-02
-3.044418e-02
-3.044418e-02
-3.044418e-02
-3.044418e-02
-3.044418e-02
-3.044418e-02
-1.826550e-02
-1.826550e-02
-1.826550e-02
-1.826550e-02
-1.826550e-02
-1.826550e-02
-1.826550e-02
-1.826550e-02
-1.826550e-02
-1.826550e-02
-3.817848e-02
-3.817848e-02
-3.817848e-02
-3.817848e-02
-3.817848e-02
-3.817848e-02
-3.817848e-02
-3.817848e-02
-3.817848e-02
-3.478362e-02
-3.478362e-02
-3.478362e-02
-3.478362e-02
-3.478362e-02
-3.478362e-02
-3.478362e-02
-3.478362e-02
-3.478362e-02
-3.478362e-02
-1.872178e-12
-1.951995e-12
-1.957906e-12
1.985839e-12
2.069758e-12
1.942165e-12
1.831273e-12
-1.837188e-12
-2.029986e-12
1.905262e-12
-3.315866e-02
-3.315866e-02
-3.315866e-02
-3.315866e-02
-3.315866e-02
-2.666278e-02
-2.666278e-02
-2.666278e-02
-2.666278e-02
-2.666278e-02
-2.666278e-02
-2.666278e-02
-2.666278e-02
-2.666278e-02
-2.666278e-02
-2.666278e-02
-2.666278e-02
-2.666278e-02
-2.666278e-02
-2.666278e-02
-2.666278e-02
-2.666278e-02
-2.666278e-02
1.764752e-12
-1.946547e-12
-1.820213e-12
-1.924942e-12
-1.739686e-12
-1.810737e-12
1.906754e-12
1.799939e-12
1.911108e-12
-1.767228e-12
-1.847231e-12
-1.735490e-12
-1.858804e-12
1.964075e-12
1.836595e-12
1.882882e-12
1.728557e-12
1.782645e-12
-1.453549e-02
-1.453549e-02
-1.453549e-02
-1.453549e-02
-1.453549e-02
-1.453549e-02
-1.453549e-02
-1.453549e-02
-1.453549e-02
-1.453549e-02
-2.764046e-02
-2.764046e-02
-2.764046e-02
-2.764046e-02
-2.764046e-02
-2.764046e-02
-2.764046e-02
-2.764046e-02
-2.764046e-02
1.949765e-02
1.949765e-02
1.949765e-02
1.949765e-02
1.949765e-02
1.949765e-02
1.949765e-02
1.949765e-02
1.949765e-02
1.949765e-02
-2.225970e-02
-2.225970e-02
-2.225970e-02
-2.225970e-02
-2.225970e-02
-2.225970e-02
-2.225970e-02
-2.225970e-02
-2.225970e-02
-2.225970e-02
-1.751410e-12
-1.675705e-12
1.626127e-12
1.664027e-12
-1.593478e-12
-1.569527e-12
-1.696475e-12
1.790415e-12
1.712553e-12
1.559515e-12
-2.377279e-02
-2.377279e-02
-2.377279e-02
-2.377279e-02
-2.377279e-02
-2.377279e-02
-2.377279e-02
-2.377279e-02
-2.377279e-02
-2.377279e-02
-2.193352e-02
-2.193352e-02
-2.193352e-02
-2.193352e-02
-2.193352e-02
-1.533642e-12
1.352290e-12
-1.355290e-12
-1.421757e-12
-1.470535e-12
-1.410033e-12
-1.438281e-12
1.501892e-12
1.548300e-12
1.378290e-12
1.325187e-12
-1.336681e-12
-1.339981e-12
1.476832e-12
1.491504e-12
1.425138e-12
1.384966e-12
-1.511685e-12
-1.751416e-02
-1.751416e-02
-1.751416e-02
-1.751416e-02
-1.751416e-02
-1.751416e-02
-1.751416e-02
-1.751416e-02
-1.751416e-02
-1.751416e-02
-1.751416e-02
-1.751416e-02
-1.751416e-02
-1.751416e-02
-1.751416e-02
-1.751416e-02
-1.751416e-02
-1.751416e-02
1.826550e-02
1.826550e-02
1.826550e-02
1.826550e-02
1.826550e-02
1.826550e-02
1.826550e-02
1.826550e-02
1.826550e-02
1.826550e-02
-1.642658e-02
-1.642658e-02
-1.642658e-02
-1.642658e-02
-1.642658e-02
-1.642658e-02
-1.642658e-02
-1.642658e-02
-1.642658e-02
-9.289231e-03
-9.289231e-03
-9.289231e-03
-9.289231e-03
-9.289231e-03
-9.289231e-03
-9.289231e-03
-9.289231e-03
-9.289231e-03
-9.289231e-03
-1.073825e-12
-1.080023e-12
-1.234008e-12
-1.163382e-12
-1.208110e-12
1.267056e-12
1.105908e-12
1.147795e-12
1.052563e-12
1.202153e-12
-1.282886e-02
-1.282886e-02
-1.282886e-02
-1.282886e-02
-1.282886e-02
-1.282886e-02
-1.282886e-02
-1.282886e-02
-1.282886e-02
-1.282886e-02
3.536635e-02
3.536635e-02
3.536635e-02
3.536635e-02
3.536635e-02
3.536635e-02
3.536635e-02
3.536635e-02
3.536635e-02
3.536635e-02
3.536635e-02
3.536635e-02
3.536635e-02
3.536635e-02
3.536635e-02
3.536635e-02
3.536635e-02
3.536635e-02
1.453549e-02
1.453549e-02
1.453549e-02
1.453549e-02
1.453549e-02
1.453549e-02
1.453549e-02
1.453549e-02
1.453549e-02
1.453549e-02
-1.265380e-02
-1.265380e-02
-1.265380e-02
-1.265380e-02
-1.265380e-02
-1.265380e-02
-1.265380e-02
-1.265380e-02
-1.265380e-02
-1.265380e-02
3.487351e-02
3.487351e-02
3.487351e-02
3.487351e-02
3.487351e-02
3.487351e-02
3.487351e-02
3.487351e-02
3.487351e-02
3.487351e-02
-9.419596e-13
8.113473e-13
7.810310e-13
-9.631861e-13
-7.908880e-13
-8.442534e-13
-8.730494e-13
-7.803364e-13
-8.816495e-13
-9.303680e-13
9.708252e-13
9.154530e-13
8.557402e-13
9.359031e-13
8.166831e-13
7.643543e-13
-7.929917e-13
9.124500e-13
3.318499e-02
3.318499e-02
3.318499e-02
3.318499e-02
3.318499e-02
3.318499e-02
3.318499e-02
3.318499e-02
3.318499e-02
3.318499e-02
3.318499e-02
3.318499e-02
3.318499e-02
3.318499e-02
3.318499e-02
3.318499e-02
3.318499e-02
3.318499e-02
-8.607935e-03
-8.607935e-03
-8.607935e-03
-8.607935e-03
-8.607935e-03
-8.607935e-03
-8.607935e-03
-8.607935e-03
-8.607935e-03
-8.607935e-03
-8.607935e-03
-8.607935e-03
-8.607935e-03
-8.607935e-03
-8.607935e-03
-8.607935e-03
-8.607935e-03
-8.607935e-03
3.044418e-02
3.044418e-02
3.044418e-02
3.044418e-02
3.044418e-02
3.044418e-02
3.044418e-02
3.044418e-02
3.044418e-02
3.044418e-02
-5.141266e-13
-6.636820e-13
-5.975414e-13
-6.673093e-13
6.887043e-13
5.316527e-13
5.779000e-13
4.900583e-13
-5.250912e-13
6.375203e-13
9.289231e-03
9.289231e-03
9.289231e-03
9.289231e-03
9.289231e-03
9.289231e-03
9.289231e-03
9.289231e-03
9.289231e-03
9.289231e-03
-6.637211e-03
-6.637211e-03
-4.345777e-03
-6.637211e-03
-6.637211e-03
-4.345777e-03
-4.345777e-03
-4.345777e-03
-4.345777e-03
-4.345777e-03
-6.637211e-03
-6.637211e-03
-6.637211e-03
-6.637211e-03
-6.637211e-03
-6.637211e-03
-4.345777e-03
-4.345777e-03
-4.345777e-03
-4.345777e-03
2.666278e-02
2.666278e-02
2.666278e-02
2.666278e-02
2.666278e-02
2.666278e-02
2.666278e-02
2.666278e-02
2.666278e-02
2.666278e-02
2.666278e-02
2.666278e-02
2.666278e-02
2.666278e-02
2.666278e-02
2.666278e-02
2.666278e-02
2.666278e-02
2.225970e-02
2.225970e-02
2.225970e-02
2.225970e-02
2.225970e-02
2.225970e-02
2.225970e-02
2.225970e-02
2.225970e-02
2.225970e-02
-4.269279e-13
2.921900e-13
-3.310231e-13
-4.506307e-03
-4.506307e-03
3.943062e-13
-2.778998e-13
-4.479251e-13
-3.634459e-13
-2.794039e-13
-2.972951e-13
-3.918116e-13
-4.419572e-13
-4.506307e-03
-4.506307e-03
-4.506307e-03
-4.506307e-03
-4.506307e-03
-4.506307e-03
4.490893e-13
2.642375e-13
3.423712e-13
4.245455e-13
4.033307e-13
3.101013e-13
2.569495e-13
-4.506307e-03
4.537782e-02
4.537782e-02
4.537782e-02
4.537782e-02
4.537782e-02
4.537782e-02
4.537782e-02
4.537782e-02
4.537782e-02
4.537782e-02
1.751416e-02
1.751416e-02
1.751416e-02
1.751416e-02
1.751416e-02
1.751416e-02
1.751416e-02
1.751416e-02
1.751416e-02
1.751416e-02
1.751416e-02
1.751416e-02
1.751416e-02
1.751416e-02
1.751416e-02
1.751416e-02
1.751416e-02
1.751416e-02
4.262562e-02
4.262562e-02
4.262562e-02
4.262562e-02
4.262562e-02
4.262562e-02
4.262562e-02
4.262562e-02
4.262562e-02
4.262562e-02
-2.750060e-13
1.401428e-13
1.918515e-13
4.345777e-03
4.345777e-03
4.345777e-03
4.345777e-03
-1.517240e-13
-1.271577e-13
-2.143687e-13
-2.983782e-13
-2.281521e-03
-2.281521e-03
-2.281521e-03
-2.281521e-03
-2.281521e-03
-2.281521e-03
-2.281521e-03
-2.281521e-03
-2.281521e-03
2.941877e-13
2.521453e-13
1.071598e-13
4.345777e-03
4.345777e-03
4.345777e-03
4.345777e-03
4.345777e-03
-2.281521e-03
4.345777e-03
1.282886e-02
1.282886e-02
1.282886e-02
1.282886e-02
1.282886e-02
1.282886e-02
1.282886e-02
1.282886e-02
1.282886e-02
1.282886e-02
3.478362e-02
3.478362e-02
3.478362e-02
3.478362e-02
3.478362e-02
3.478362e-02
3.478362e-02
3.478362e-02
3.478362e-02
3.478362e-02
7.946845e-14
8.607935e-03
8.607935e-03
-6.600240e-14
-1.389255e-13
-4.208095e-14
1.259347e-13
8.607935e-03
8.607935e-03
8.607935e-03
8.607935e-03
8.607935e-03
8.607935e-03
8.607935e-03
-1.387171e-14
-1.905053e-13
-1.607158e-13
-1.829978e-13
-1.028413e-13
1.769523e-13
2.808738e-14
1.612653e-13
1.395024e-13
4.674087e-14
-6.037422e-15
8.607935e-03
8.607935e-03
8.607935e-03
8.607935e-03
8.607935e-03
8.607935e-03
8.607935e-03
8.607935e-03
8.607935e-03
-2.095371e-14
9.744062e-16
2.377279e-02
2.377279e-02
2.377279e-02
2.377279e-02
2.377279e-02
2.377279e-02
2.377279e-02
2.377279e-02
2.377279e-02
2.377279e-02
1.265380e-02
6.637211e-03
-4.127316e-14
6.637211e-03
1.265380e-02
1.265380e-02
1.265380e-02
1.265380e-02
1.265380e-02
6.637211e-03
6.637211e-03
6.637211e-03
6.637211e-03
2.281521e-03
5.596174e-14
-8.908768e-14
-1.237899e-13
-3.379645e-14
2.382538e-14
1.056469e-13
1.087387e-14
6.986255e-14
-7.582283e-14
2.281521e-03
2.281521e-03
2.281521e-03
2.281521e-03
6.637211e-03
6.637211e-03
6.637211e-03
6.637211e-03
1.265380e-02
1.265380e-02
1.265380e-02
1.265380e-02
2.281521e-03
2.281521e-03
2.281521e-03
2.281521e-03
2.281521e-03
4.506307e-03
4.506307e-03
4.506307e-03
4.506307e-03
4.506307e-03
4.506307e-03
4.855892e-02
4.855892e-02
4.855892e-02
4.855892e-02
4.855892e-02
4.855892e-02
4.855892e-02
4.855892e-02
4.855892e-02
4.788215e-02
4.788215e-02
4.788215e-02
4.788215e-02
4.788215e-02
4.575910e-02
4.575910e-02
4.575910e-02
4.575910e-02
4.575910e-02
4.575910e-02
4.575910e-02
4.575910e-02
4.575910e-02
4.250893e-02
4.250893e-02
4.250893e-02
4.250893e-02
4.250893e-02
3.817848e-02
3.817848e-02
3.817848e-02
3.817848e-02
3.817848e-02
3.817848e-02
3.817848e-02
3.817848e-02
3.817848e-02
3.315866e-02
3.315866e-02
3.315866e-02
3.315866e-02
3.315866e-02
2.764046e-02
2.764046e-02
2.764046e-02
2.764046e-02
2.764046e-02
2.764046e-02
2.764046e-02
2.764046e-02
2.764046e-02
2.193352e-02
2.193352e-02
2.193352e-02
2.193352e-02
2.193352e-02
1.642658e-02
1.642658e-02
1.642658e-02
1.642658e-02
1.642658e-02
1.642658e-02
1.642658e-02
1.642658e-02
1.642658e-02
8.104235e-14
-1.012687e-13
-8.795461e-14
6.909519e-14
-1.061332e-14
-6.379766e-14
4.655770e-14
3.058012e-14
-4.874140e-14
4.506307e-03
4.506307e-03
4.506307e-03
4.506307e-03
4.506307e-03
1.642658e-02
1.642658e-02
1.642658e-02
1.642658e-02
1.642658e-02
1.642658e-02
1.642658e-02
1.642658e-02
1.642658e-02
2.193352e-02
2.193352e-02
2.193352e-02
2.193352e-02
2.193352e-02
2.764046e-02
2.764046e-02
2.764046e-02
2.764046e-02
2.764046e-02
2.764046e-02
2.764046e-02
2.764046e-02
2.764046e-02
3.315866e-02
3.315866e-02
3.315866e-02
3.315866e-02
3.315866e-02
3.817848e-02
3.817848e-02
3.817848e-02
3.817848e-02
3.817848e-02
3.817848e-02
3.817848e-02
3.817848e-02
3.817848e-02
4.250893e-02
4.250893e-02
4.250893e-02
4.250893e-02
4.250893e-02
4.575910e-02
4.575910e-02
4.575910e-02
4.575910e-02
4.575910e-02
4.575910e-02
4.575910e-02
4.575910e-02
4.575910e-02
4.788215e-02
4.788215e-02
4.788215e-02
4.788215e-02
4.788215e-02
4.855892e-02
4.855892e-02
4.855892e-02
4.855892e-02
4.855892e-02
4.855892e-02
4.855892e-02
4.855892e-02
4.855892e-02
4.506307e-03
4.506307e-03
4.506307e-03
4.506307e-03
4.506307e-03
4.506307e-03
4.506307e-03
2.281521e-03
1.596818e-14
2.281521e-03
2.281521e-03
2.281521e-03
2.281521e-03
2.281521e-03
2.281521e-03
2.281521e-03
-3.444921e-14
1.265380e-02
1.265380e-02
1.265380e-02
1.265380e-02
1.265380e-02
6.637211e-03
6.637211e-03
1.035432e-13
-3.959010e-14
6.904610e-14
-8.042479e-14
5.777136e-14
2.238361e-14
-1.232683e-13
-8.677114e-14
2.281521e-03
6.637211e-03
6.637211e-03
6.637211e-03
6.637211e-03
1.265380e-02
1.265380e-02
1.265380e-02
1.265380e-02
1.265380e-02
6.637211e-03
6.637211e-03
2.281521e-03
6.637211e-03
6.637211e-03
2.377279e-02
2.377279e-02
2.377279e-02
2.377279e-02
2.377279e-02
2.377279e-02
2.377279e-02
2.377279e-02
2.377279e-02
2.377279e-02
8.607935e-03
1.628339e-13
-4.529482e-14
-1.041934e-13
8.607935e-03
8.607935e-03
8.607935e-03
8.607935e-03
8.607935e-03
8.607935e-03
8.607935e-03
8.607935e-03
8.607935e-03
3.214748e-14
1.725985e-13
1.233445e-14
8.889963e-14
1.375011e-13
3.849044e-14
-1.543567e-14
-1.177080e-14
-1.552493e-13
-1.384281e-13
-1.896821e-13
-6.146026e-14
8.607935e-03
8.607935e-03
8.607935e-03
8.607935e-03
8.607935e-03
8.607935e-03
8.607935e-03
8.607935e-03
1.219374e-13
-1.807330e-13
-2.382848e-14
3.478362e-02
3.478362e-02
3.478362e-02
3.478362e-02
3.478362e-02
3.478362e-02
3.478362e-02
3.478362e-02
3.478362e-02
3.478362e-02
1.282886e-02
1.282886e-02
1.282886e-02
1.282886e-02
1.282886e-02
1.282886e-02
1.282886e-02
1.282886e-02
1.282886e-02
1.282886e-02
2.860784e-13
9.189319e-14
4.345777e-03
-2.281521e-03
-2.281521e-03
-2.281521e-03
4.345777e-03
4.345777e-03
4.345777e-03
4.345777e-03
4.345777e-03
1.472912e-13
2.054600e-13
2.482149e-13
-2.281521e-03
-2.281521e-03
-2.281521e-03
-2.281521e-03
-1.247851e-13
-2.676675e-13
-1.551374e-13
-2.982227e-13
-2.161059e-13
4.345777e-03
4.345777e-03
4.345777e-03
4.345777e-03
-2.281521e-03
-2.281521e-03
-2.281521e-03
4.262562e-02
4.262562e-02
4.262562e-02
4.262562e-02
4.262562e-02
4.262562e-02
4.262562e-02
4.262562e-02
4.262562e-02
4.262562e-02
1.751416e-02
1.751416e-02
1.751416e-02
1.751416e-02
1.751416e-02
1.751416e-02
1.751416e-02
1.751416e-02
1.751416e-02
1.751416e-02
1.751416e-02
1.751416e-02
1.751416e-02
1.751416e-02
1.751416e-02
1.751416e-02
1.751416e-02
1.751416e-02
4.537782e-02
4.537782e-02
4.537782e-02
4.537782e-02
4.537782e-02
4.537782e-02
4.537782e-02
4.537782e-02
4.537782e-02
4.537782e-02
-4.506307e-03
-4.506307e-03
-4.506307e-03
4.383278e-13
2.849611e-13
3.592735e-13
4.273707e-13
3.962205e-13
2.920777e-13
2.361987e-13
-4.506307e-03
-4.506307e-03
-4.506307e-03
-2.760755e-13
-4.425558e-13
-3.661235e-13
-2.836217e-13
-3.015302e-13
-3.919614e-13
-4.432268e-13
3.882461e-13
-4.506307e-03
-4.506307e-03
-4.506307e-03
-3.237466e-13
3.015952e-13
-4.175953e-13
2.225970e-02
2.225970e-02
2.225970e-02
2.225970e-02
2.225970e-02
2.225970e-02
2.225970e-02
2.225970e-02
2.225970e-02
2.225970e-02
2.666278e-02
2.666278e-02
2.666278e-02
2.666278e-02
2.666278e-02
2.666278e-02
2.666278e-02
2.666278e-02
2.666278e-02
2.666278e-02
2.666278e-02
2.666278e-02
2.666278e-02
2.666278e-02
2.666278e-02
2.666278e-02
2.666278e-02
2.666278e-02
-6.637211e-03
-6.637211e-03
-4.345777e-03
-4.345777e-03
-4.345777e-03
-4.345777e-03
-4.345777e-03
-4.345777e-03
-4.345777e-03
-4.345777e-03
-4.345777e-03
-6.637211e-03
-6.637211e-03
-6.637211e-03
-6.637211e-03
-6.637211e-03
-6.637211e-03
-4.345777e-03
-6.637211e-03
-6.637211e-03
9.289231e-03
9.289231e-03
9.289231e-03
9.289231e-03
9.289231e-03
9.289231e-03
9.289231e-03
9.289231e-03
9.289231e-03
9.289231e-03
6.281274e-13
-5.311845e-13
6.751037e-13
5.420661e-13
5.991604e-13
4.615593e-13
-5.116795e-13
-6.525768e-13
-6.005769e-13
-6.686373e-13
3.044418e-02
3.044418e-02
3.044418e-02
3.044418e-02
3.044418e-02
3.044418e-02
3.044418e-02
3.044418e-02
3.044418e-02
3.044418e-02
-8.607935e-03
-8.607935e-03
-8.607935e-03
-8.607935e-03
-8.607935e-03
-8.607935e-03
-8.607935e-03
-8.607935e-03
-8.607935e-03
-8.607935e-03
-8.607935e-03
-8.607935e-03
-8.607935e-03
-8.607935e-03
-8.607935e-03
-8.607935e-03
-8.607935e-03
-8.607935e-03
3.318499e-02
3.318499e-02
3.318499e-02
3.318499e-02
3.318499e-02
3.318499e-02
3.318499e-02
3.318499e-02
3.318499e-02
3.318499e-02
3.318499e-02
3.318499e-02
3.318499e-02
3.318499e-02
3.318499e-02
3.318499e-02
3.318499e-02
3.318499e-02
9.013314e-13
-7.999472e-13
9.540240e-13
9.057135e-13
8.805593e-13
9.416326e-13
7.872746e-13
7.287211e-13
-7.882149e-13
-8.355047e-13
-8.764145e-13
-7.886542e-13
-8.830085e-13
-9.322793e-13
-9.545284e-13
8.086491e-13
8.235515e-13
-9.297043e-13
3.487351e-02
3.487351e-02
3.487351e-02
3.487351e-02
3.487351e-02
3.487351e-02
3.487351e-02
3.487351e-02
3.487351e-02
3.487351e-02
-1.265380e-02
-1.265380e-02
-1.265380e-02
-1.265380e-02
-1.265380e-02
-1.265380e-02
-1.265380e-02
-1.265380e-02
-1.265380e-02
-1.265380e-02
1.453549e-02
1.453549e-02
1.453549e-02
1.453549e-02
1.453549e-02
1.453549e-02
1.453549e-02
1.453549e-02
1.453549e-02
1.453549e-02
3.536635e-02
3.536635e-02
3.536635e-02
3.536635e-02
3.536635e-02
3.536635e-02
3.536635e-02
3.536635e-02
3.536635e-02
3.536635e-02
3.536635e-02
3.536635e-02
3.536635e-02
3.536635e-02
3.536635e-02
3.536635e-02
3.536635e-02
3.536635e-02
-1.282886e-02
-1.282886e-02
-1.282886e-02
-1.282886e-02
-1.282886e-02
-1.282886e-02
-1.282886e-02
-1.282886e-02
-1.282886e-02
-1.282886e-02
1.188903e-12
1.247242e-12
1.119632e-12
1.176619e-12
1.010699e-12
-1.079136e-12
-1.220840e-12
-1.164944e-12
-1.209308e-12
-1.081943e-12
-9.289231e-03
-9.289231e-03
-9.289231e-03
-9.289231e-03
-9.289231e-03
-9.289231e-03
-9.289231e-03
-9.289231e-03
-9.289231e-03
-9.289231e-03
-1.642658e-02
-1.642658e-02
-1.642658e-02
-1.642658e-02
-1.642658e-02
-1.642658e-02
-1.642658e-02
-1.642658e-02
-1.642658e-02
1.826550e-02
1.826550e-02
1.826550e-02
1.826550e-02
1.826550e-02
1.826550e-02
1.826550e-02
1.826550e-02
1.826550e-02
1.826550e-02
-1.751416e-02
-1.751416e-02
-1.751416e-02
-1.751416e-02
-1.751416e-02
-1.751416e-02
-1.751416e-02
-1.751416e-02
-1.751416e-02
-1.751416e-02
-1.751416e-02
-1.751416e-02
-1.751416e-02
-1.751416e-02
-1.751416e-02
-1.751416e-02
-1.751416e-02
-1.751416e-02
-1.496831e-12
1.399614e-12
1.477983e-12
1.457386e-12
1.461976e-12
-1.349589e-12
-1.346355e-12
1.524397e-12
1.339696e-12
1.277719e-12
1.513272e-12
-1.404080e-12
-1.439125e-12
-1.354762e-12
-1.426179e-12
-1.472132e-12
1.386600e-12
-1.521008e-12
-2.193352e-02
-2.193352e-02
-2.193352e-02
-2.193352e-02
-2.193352e-02
-2.377279e-02
-2.377279e-02
-2.377279e-02
-2.377279e-02
-2.377279e-02
-2.377279e-02
-2.377279e-02
-2.377279e-02
-2.377279e-02
-2.377279e-02
1.763661e-12
1.696459e-12
1.507698e-12
-1.592291e-12
-1.580701e-12
-1.699751e-12
1.640575e-12
1.699994e-12
-1.735065e-12
-1.676162e-12
-2.225970e-02
-2.225970e-02
-2.225970e-02
-2.225970e-02
-2.225970e-02
-2.225970e-02
-2.225970e-02
-2.225970e-02
-2.225970e-02
-2.225970e-02
1.949765e-02
1.949765e-02
1.949765e-02
1.949765e-02
1.949765e-02
1.949765e-02
1.949765e-02
1.949765e-02
1.949765e-02
1.949765e-02
-2.764046e-02
-2.764046e-02
-2.764046e-02
-2.764046e-02
-2.764046e-02
-2.764046e-02
-2.764046e-02
-2.764046e-02
-2.764046e-02
-1.453549e-02
-1.453549e-02
-1.453549e-02
-1.453549e-02
-1.453549e-02
-1.453549e-02
-1.453549e-02
-1.453549e-02
-1.453549e-02
-1.453549e-02
1.738299e-12
1.936121e-12
1.874178e-12
1.866305e-12
1.673754e-12
-1.763799e-12
-1.847759e-12
-1.747981e-12
-1.863810e-12
1.890113e-12
1.814581e-12
1.925550e-12
-1.818098e-12
-1.814210e-12
-1.907776e-12
-1.752797e-12
-1.932022e-12
1.804980e-12
-2.666278e-02
-2.666278e-02
-2.666278e-02
-2.666278e-02
-2.666278e-02
-2.666278e-02
-2.666278e-02
-2.666278e-02
-2.666278e-02
-2.666278e-02
-2.666278e-02
-2.666278e-02
-2.666278e-02
-2.666278e-02
-2.666278e-02
-2.666278e-02
-2.666278e-02
-2.666278e-02
-3.315866e-02
-3.315866e-02
-3.315866e-02
-3.315866e-02
-3.315866e-02
1.920349e-12
-2.013452e-12
-1.850439e-12
2.040508e-12
1.980669e-12
1.774610e-12
1.968275e-12
-1.867663e-12
-1.952251e-12
-1.962907e-12
-3.478362e-02