# vtk DataFile Version 3.0
Unstructured Grid Example
ASCII
DATASET UNSTRUCTURED_GRID
POINTS 1641 float
-9.500000e-01	 0	 0
-9.500000e-01	 0	 3.750000e-01
-9.500000e-01	 0	 1.125000e+00
-9.500000e-01	 0	 1.500000e+00
-9.500000e-01	 0	 1.875000e+00
-9.500000e-01	 0	 2.250000e+00
-9.500000e-01	 0	 2.625000e+00
-9.500000e-01	 0	 3
-9.500000e-01	 0	 7.500000e-01
-9.341401e-01	 -1.728649e-01	 1.500000e+00
-9.341401e-01	 -1.728649e-01	 0
-9.341401e-01	 -1.728649e-01	 3.000000e+00
-9.341401e-01	 1.728649e-01	 2.250000e+00
-9.341401e-01	 1.728649e-01	 0
-9.341401e-01	 1.728649e-01	 1.500000e+00
-9.341401e-01	 1.728649e-01	 3.000000e+00
-9.341401e-01	 -1.728649e-01	 7.500000e-01
-9.341401e-01	 -1.728649e-01	 2.250000e+00
-9.341401e-01	 1.728649e-01	 7.500000e-01
-8.832989e-01	 -3.496900e-01	 1.125000e+00
-8.832989e-01	 -3.496900e-01	 1.875000e+00
-8.832989e-01	 -3.496900e-01	 2.625000e+00
-8.832989e-01	 -3.496900e-01	 2.250000e+00
-8.832989e-01	 3.496900e-01	 1.125000e+00
-8.832989e-01	 -3.496900e-01	 0
-8.832989e-01	 -3.496900e-01	 3.000000e+00
-8.832989e-01	 -3.496900e-01	 3.750000e-01
-8.832989e-01	 -3.496900e-01	 7.500000e-01
-8.832989e-01	 3.496900e-01	 3.750000e-01
-8.832989e-01	 3.496900e-01	 7.500000e-01
-8.832989e-01	 3.496900e-01	 2.250000e+00
-8.832989e-01	 3.496900e-01	 2.625000e+00
-8.832989e-01	 3.496900e-01	 0
-8.832989e-01	 3.496900e-01	 1.875000e+00
-8.832989e-01	 3.496900e-01	 3.000000e+00
-8.832989e-01	 -3.496900e-01	 1.500000e+00
-8.832989e-01	 3.496900e-01	 1.500000e+00
-8.787500e-01	 0	 2.250000e+00
-8.787500e-01	 0	 0
-8.787500e-01	 0	 1.500000e+00
-8.787500e-01	 0	 3
-8.787500e-01	 0	 7.500000e-01
-8.149622e-01	 -3.223238e-01	 7.500000e-01
-8.149622e-01	 3.223238e-01	 7.500000e-01
-8.149622e-01	 -3.223238e-01	 2.250000e+00
-8.149622e-01	 3.223238e-01	 2.250000e+00
-8.149622e-01	 -3.223238e-01	 0
-8.149622e-01	 -3.223238e-01	 1.500000e+00
-8.149622e-01	 -3.223238e-01	 3
-8.149622e-01	 3.223238e-01	 1.500000e+00
-8.149622e-01	 3.223238e-01	 0
-8.149622e-01	 3.223238e-01	 3
-8.075000e-01	 0	 7.500000e-01
-8.075000e-01	 0	 2.250000e+00
-8.075000e-01	 0	 3.750000e-01
-8.075000e-01	 0	 1.875000e+00
-8.075000e-01	 0	 2.625000e+00
-8.075000e-01	 0	 0
-8.075000e-01	 0	 1.125000e+00
-8.075000e-01	 0	 1.500000e+00
-8.075000e-01	 0	 3
-7.951457e-01	 -5.198493e-01	 7.500000e-01
-7.951457e-01	 5.198493e-01	 7.500000e-01
-7.951457e-01	 -5.198493e-01	 0
-7.951457e-01	 -5.198493e-01	 1.500000e+00
-7.951457e-01	 -5.198493e-01	 2.250000e+00
-7.951457e-01	 -5.198493e-01	 3
-7.951457e-01	 5.198493e-01	 0
-7.951457e-01	 5.198493e-01	 1.500000e+00
-7.951457e-01	 5.198493e-01	 2.250000e+00
-7.951457e-01	 5.198493e-01	 3
-7.894916e-01	 -1.451644e-01	 7.500000e-01
-7.894916e-01	 1.451644e-01	 7.500000e-01
-7.894916e-01	 1.451644e-01	 0
-7.894916e-01	 1.451644e-01	 3
-7.894916e-01	 -1.451644e-01	 0
-7.894916e-01	 -1.451644e-01	 1.500000e+00
-7.894916e-01	 -1.451644e-01	 2.250000e+00
-7.894916e-01	 -1.451644e-01	 3
-7.894916e-01	 1.451644e-01	 1.500000e+00
-7.894916e-01	 1.451644e-01	 2.250000e+00
-7.430021e-01	 -2.929055e-01	 1.500000e+00
-7.430021e-01	 2.929055e-01	 1.500000e+00
-7.430021e-01	 -2.929055e-01	 2.250000e+00
-7.430021e-01	 -2.929055e-01	 0
-7.430021e-01	 -2.929055e-01	 3.000000e+00
-7.430021e-01	 2.929055e-01	 3.750000e-01
-7.430021e-01	 -2.929055e-01	 3.750000e-01
-7.430021e-01	 -2.929055e-01	 1.125000e+00
-7.430021e-01	 -2.929055e-01	 1.875000e+00
-7.430021e-01	 -2.929055e-01	 2.625000e+00
-7.430021e-01	 2.929055e-01	 1.125000e+00
-7.430021e-01	 2.929055e-01	 0
-7.430021e-01	 2.929055e-01	 1.875000e+00
-7.430021e-01	 2.929055e-01	 2.250000e+00
-7.430021e-01	 2.929055e-01	 2.625000e+00
-7.430021e-01	 2.929055e-01	 3.000000e+00
-7.430021e-01	 2.929055e-01	 7.500000e-01
-7.430021e-01	 -2.929055e-01	 7.500000e-01
-7.362500e-01	 0	 0
-7.362500e-01	 0	 7.500000e-01
-7.362500e-01	 0	 1.500000e+00
-7.362500e-01	 0	 2.250000e+00
-7.362500e-01	 0	 3
-6.717514e-01	 -6.717514e-01	 2.625000e+00
-6.717514e-01	 6.717514e-01	 2.625000e+00
-6.717514e-01	 -6.717514e-01	 0
-6.717514e-01	 -6.717514e-01	 3.750000e-01
-6.717514e-01	 -6.717514e-01	 7.500000e-01
-6.717514e-01	 -6.717514e-01	 1.125000e+00
-6.717514e-01	 -6.717514e-01	 1.875000e+00
-6.717514e-01	 -6.717514e-01	 3.000000e+00
-6.717514e-01	 -6.717514e-01	 2.250000e+00
-6.717514e-01	 6.717514e-01	 1.500000e+00
-6.717514e-01	 6.717514e-01	 0
-6.717514e-01	 6.717514e-01	 3.750000e-01
-6.717514e-01	 6.717514e-01	 7.500000e-01
-6.717514e-01	 6.717514e-01	 1.125000e+00
-6.717514e-01	 6.717514e-01	 1.875000e+00
-6.717514e-01	 6.717514e-01	 3.000000e+00
-6.717514e-01	 -6.717514e-01	 1.500000e+00
-6.717514e-01	 6.717514e-01	 2.250000e+00
-6.682985e-01	 -2.618048e-01	 0
-6.682985e-01	 -2.618048e-01	 1.500000e+00
-6.682985e-01	 -2.618048e-01	 3
-6.682985e-01	 -2.618048e-01	 7.500000e-01
-6.682985e-01	 -2.618048e-01	 2.250000e+00
-6.682985e-01	 2.618048e-01	 7.500000e-01
-6.682985e-01	 2.618048e-01	 2.250000e+00
-6.682985e-01	 2.618048e-01	 0
-6.682985e-01	 2.618048e-01	 1.500000e+00
-6.682985e-01	 2.618048e-01	 3
-6.665713e-01	 -4.348738e-01	 2.250000e+00
-6.665713e-01	 -4.348738e-01	 7.500000e-01
-6.665713e-01	 4.348738e-01	 7.500000e-01
-6.665713e-01	 4.348738e-01	 2.250000e+00
-6.665713e-01	 -4.348738e-01	 0
-6.665713e-01	 -4.348738e-01	 3
-6.665713e-01	 4.348738e-01	 0
-6.665713e-01	 4.348738e-01	 1.500000e+00
-6.665713e-01	 4.348738e-01	 3
-6.665713e-01	 -4.348738e-01	 1.500000e+00
-6.650000e-01	 0	 7.500000e-01
-6.650000e-01	 0	 0
-6.650000e-01	 0	 3.750000e-01
-6.650000e-01	 0	 1.125000e+00
-6.650000e-01	 0	 1.500000e+00
-6.650000e-01	 0	 1.875000e+00
-6.650000e-01	 0	 2.625000e+00
-6.650000e-01	 0	 3
-6.650000e-01	 0	 2.250000e+00
-6.383743e-01	 -1.144482e-01	 0
-6.383743e-01	 -1.144482e-01	 3.000000e+00
-6.383743e-01	 -1.144482e-01	 7.500000e-01
-6.383743e-01	 -1.144482e-01	 1.500000e+00
-6.383743e-01	 -1.144482e-01	 2.250000e+00
-6.383743e-01	 1.144482e-01	 7.500000e-01
-6.383743e-01	 1.144482e-01	 1.500000e+00
-6.383743e-01	 1.144482e-01	 0
-6.383743e-01	 1.144482e-01	 2.250000e+00
-6.383743e-01	 1.144482e-01	 3.000000e+00
-6.189903e-01	 -6.189903e-01	 0
-6.189903e-01	 -6.189903e-01	 1.500000e+00
-6.189903e-01	 -6.189903e-01	 3.000000e+00
-6.189903e-01	 6.189903e-01	 2.250000e+00
-6.189903e-01	 6.189903e-01	 0
-6.189903e-01	 6.189903e-01	 1.500000e+00
-6.189903e-01	 6.189903e-01	 3.000000e+00
-6.189903e-01	 -6.189903e-01	 2.250000e+00
-6.189903e-01	 -6.189903e-01	 7.500000e-01
-6.189903e-01	 6.189903e-01	 7.500000e-01
-5.937500e-01	 0	 0
-5.937500e-01	 0	 7.500000e-01
-5.937500e-01	 0	 1.500000e+00
-5.937500e-01	 0	 2.250000e+00
-5.937500e-01	 0	 3
-5.917666e-01	 2.294176e-01	 1.875000e+00
-5.917666e-01	 2.294176e-01	 2.250000e+00
-5.917666e-01	 -2.294176e-01	 2.250000e+00
-5.917666e-01	 -2.294176e-01	 0
-5.917666e-01	 -2.294176e-01	 2.625000e+00
-5.917666e-01	 -2.294176e-01	 3
-5.917666e-01	 -2.294176e-01	 1.500000e+00
-5.917666e-01	 -2.294176e-01	 1.875000e+00
-5.917666e-01	 2.294176e-01	 0
-5.917666e-01	 2.294176e-01	 2.625000e+00
-5.917666e-01	 2.294176e-01	 3
-5.917666e-01	 2.294176e-01	 1.500000e+00
-5.917666e-01	 -2.294176e-01	 3.750000e-01
-5.917666e-01	 -2.294176e-01	 7.500000e-01
-5.917666e-01	 -2.294176e-01	 1.125000e+00
-5.917666e-01	 2.294176e-01	 7.500000e-01
-5.917666e-01	 2.294176e-01	 1.125000e+00
-5.917666e-01	 2.294176e-01	 3.750000e-01
-5.620800e-01	 5.620800e-01	 1.125000e+00
-5.620800e-01	 -5.620800e-01	 1.125000e+00
-5.620800e-01	 -5.620800e-01	 3.750000e-01
-5.620800e-01	 -5.620800e-01	 7.500000e-01
-5.620800e-01	 -5.620800e-01	 1.875000e+00
-5.620800e-01	 -5.620800e-01	 2.625000e+00
-5.620800e-01	 5.620800e-01	 3.750000e-01
-5.620800e-01	 5.620800e-01	 7.500000e-01
-5.620800e-01	 5.620800e-01	 1.875000e+00
-5.620800e-01	 -5.620800e-01	 0
-5.620800e-01	 -5.620800e-01	 1.500000e+00
-5.620800e-01	 -5.620800e-01	 2.250000e+00
-5.620800e-01	 -5.620800e-01	 3
-5.620800e-01	 5.620800e-01	 0
-5.620800e-01	 5.620800e-01	 1.500000e+00
-5.620800e-01	 5.620800e-01	 2.250000e+00
-5.620800e-01	 5.620800e-01	 3
-5.620800e-01	 5.620800e-01	 2.625000e+00
-5.250231e-01	 -3.396892e-01	 7.500000e-01
-5.250231e-01	 3.396892e-01	 1.500000e+00
-5.250231e-01	 3.396892e-01	 2.250000e+00
-5.250231e-01	 3.396892e-01	 7.500000e-01
-5.250231e-01	 -3.396892e-01	 2.250000e+00
-5.250231e-01	 -3.396892e-01	 0
-5.250231e-01	 -3.396892e-01	 1.500000e+00
-5.250231e-01	 -3.396892e-01	 3.000000e+00
-5.250231e-01	 3.396892e-01	 0
-5.250231e-01	 3.396892e-01	 3.000000e+00
-5.225000e-01	 0	 1.500000e+00
-5.225000e-01	 0	 2.250000e+00
-5.225000e-01	 0	 0
-5.225000e-01	 0	 3.750000e-01
-5.225000e-01	 0	 7.500000e-01
-5.225000e-01	 0	 1.125000e+00
-5.225000e-01	 0	 1.875000e+00
-5.225000e-01	 0	 2.625000e+00
-5.225000e-01	 0	 3
-5.198493e-01	 7.951457e-01	 7.500000e-01
-5.198493e-01	 -7.951457e-01	 7.500000e-01
-5.198493e-01	 -7.951457e-01	 0
-5.198493e-01	 -7.951457e-01	 1.500000e+00
-5.198493e-01	 -7.951457e-01	 2.250000e+00
-5.198493e-01	 -7.951457e-01	 3
-5.198493e-01	 7.951457e-01	 0
-5.198493e-01	 7.951457e-01	 1.500000e+00
-5.198493e-01	 7.951457e-01	 2.250000e+00
-5.198493e-01	 7.951457e-01	 3
-5.143216e-01	 -1.961513e-01	 2.250000e+00
-5.143216e-01	 1.961513e-01	 7.500000e-01
-5.143216e-01	 1.961513e-01	 1.500000e+00
-5.143216e-01	 -1.961513e-01	 7.500000e-01
-5.143216e-01	 -1.961513e-01	 0
-5.143216e-01	 -1.961513e-01	 3.000000e+00
-5.143216e-01	 -1.961513e-01	 1.500000e+00
-5.143216e-01	 1.961513e-01	 2.250000e+00
-5.143216e-01	 1.961513e-01	 0
-5.143216e-01	 1.961513e-01	 3.000000e+00
-5.020120e-01	 -5.020120e-01	 7.500000e-01
-5.020120e-01	 -5.020120e-01	 1.500000e+00
-5.020120e-01	 5.020120e-01	 7.500000e-01
-5.020120e-01	 5.020120e-01	 1.500000e+00
-5.020120e-01	 -5.020120e-01	 0
-5.020120e-01	 -5.020120e-01	 2.250000e+00
-5.020120e-01	 -5.020120e-01	 3.000000e+00
-5.020120e-01	 5.020120e-01	 0
-5.020120e-01	 5.020120e-01	 2.250000e+00
-5.020120e-01	 5.020120e-01	 3.000000e+00
-4.847636e-01	 8.158725e-02	 7.500000e-01
-4.847636e-01	 -8.158725e-02	 7.500000e-01
[...]
POINT_DATA 1641
SCALARS pres_adim float 1
LOOKUP_TABLE default
-2.091096e-03
-8.323892e-04
2.009565e-03
4.488058e-14
-2.009565e-03
-1.478628e-03
8.323892e-04
2.091096e-03
1.478628e-03
4.474877e-14
8.389179e-03
-8.389179e-03
-8.860506e-03
-1.253065e-02
4.230106e-14
1.253065e-02
-5.932046e-03
5.932046e-03
8.860506e-03
-1.851916e-02
1.851916e-02
-7.670887e-03
1.367086e-02
2.225657e-02
1.933352e-02
-1.933352e-02
7.670887e-03
-1.367086e-02
-9.218974e-03
1.641862e-02
-1.641862e-02
9.218974e-03
-2.321944e-02
-2.225657e-02
2.321944e-02
3.457633e-14
3.324861e-14
-1.472477e-03
-2.082397e-03
4.480523e-14
2.082397e-03
1.472477e-03
-1.360251e-02
1.633920e-02
1.360251e-02
-1.633920e-02
1.923685e-02
3.408596e-14
-1.923685e-02
3.248894e-14
-2.310712e-02
2.310712e-02
1.438224e-03
-1.438224e-03
-8.101984e-04
-1.955992e-03
8.101984e-04
-2.033956e-03
1.955992e-03
4.250778e-14
2.033956e-03
-2.122275e-02
2.371763e-02
3.001350e-02
1.981904e-14
2.122275e-02
-3.001350e-02
-3.354179e-02
1.943533e-14
-2.371763e-02
3.354179e-02
-5.720764e-03
8.564260e-03
-1.211169e-02
1.211169e-02
8.090383e-03
4.114321e-14
5.720764e-03
-8.090383e-03
3.962177e-14
-8.564260e-03
3.235691e-14
3.062662e-14
1.318103e-02
1.864079e-02
-1.864079e-02
-8.912204e-03
7.409569e-03
-1.788828e-02
1.788828e-02
-7.409569e-03
2.151596e-02
-2.240956e-02
-2.151596e-02
-1.584595e-02
8.912204e-03
2.240956e-02
1.584595e-02
-1.318103e-02
-1.969433e-03
1.392599e-03
3.955276e-14
-1.392599e-03
1.969433e-03
-1.564957e-02
1.682683e-02
3.928664e-02
1.564957e-02
-2.777985e-02
-3.778142e-02
3.778142e-02
-3.928664e-02
2.777985e-02
3.182048e-15
-4.224203e-02
-1.682683e-02
2.986963e-02
4.062357e-02
-4.062357e-02
4.224203e-02
3.388680e-15
-2.986963e-02
1.781948e-02
2.992936e-14
-1.781948e-02
-1.260027e-02
1.260027e-02
1.516514e-02
-1.516514e-02
-2.144675e-02
2.827186e-14
2.144675e-02
2.051270e-02
-2.051270e-02
2.292927e-02
-2.292927e-02
2.900933e-02
-2.900933e-02
-3.242689e-02
1.775665e-14
3.242689e-02
1.906773e-14
1.319799e-03
-1.866477e-03
-7.433689e-04
1.794651e-03
3.596072e-14
-1.794651e-03
7.433689e-04
1.866477e-03
-1.319799e-03
7.105104e-03
-7.105104e-03
-5.024067e-03
3.334579e-14
5.024067e-03
7.602797e-03
3.307545e-14
-1.075198e-02
-7.602797e-03
1.075198e-02
3.912115e-02
3.561185e-15
-3.912115e-02
-2.974380e-02
-4.206409e-02
2.955116e-15
4.206409e-02
2.766283e-02
-2.766283e-02
2.974380e-02
-1.749406e-03
1.237017e-03
3.153937e-14
-1.237017e-03
1.749406e-03
-1.905187e-02
-1.401997e-02
1.162524e-02
1.644058e-02
-6.541542e-03
-1.644058e-02
2.645956e-14
1.579268e-02
-1.982723e-02
7.891542e-03
1.982723e-02
2.547633e-14
6.541542e-03
-1.162524e-02
-1.579268e-02
1.401997e-02
1.905187e-02
-7.891542e-03
3.935181e-02
-3.659864e-02
1.515965e-02
-2.687644e-02
3.659864e-02
-1.515965e-02
-1.630005e-02
2.889825e-02
-3.935181e-02
3.800903e-02
3.446856e-15
2.687644e-02
-3.800903e-02
-4.086830e-02
2.423022e-15
-2.889825e-02
4.086830e-02
1.630005e-02
-1.812036e-02
1.521110e-14
-2.027449e-02
2.027449e-02
1.812036e-02
2.562606e-02
1.621046e-14
-2.562606e-02
-2.867246e-02
2.867246e-02
2.721903e-14
-1.129677e-03
-1.597605e-03
-6.344006e-04
1.129677e-03
1.531579e-03
-1.531579e-03
6.344006e-04
1.597605e-03
3.522697e-02
-3.359790e-02
4.751461e-02
-1.251106e-14
3.359790e-02
-4.751461e-02
-4.981846e-02
-1.427717e-14
-3.522697e-02
4.981846e-02
1.047406e-02
1.267178e-02
2.177436e-14
-1.047406e-02
1.481255e-02
-1.481255e-02
2.250029e-14
-1.267178e-02
-1.792061e-02
1.792061e-02
-2.576788e-02
3.343091e-15
2.770630e-02
2.469968e-15
3.644129e-02
2.576788e-02
-3.644129e-02
-3.918263e-02
-2.770630e-02
3.918263e-02
5.994655e-03
-3.854987e-03
5.451775e-03
2.390877e-14
-5.451775e-03
3.854987e-03
-8.477722e-03
2.307745e-14
-5.994655e-03
8.477722e-03
2.145448e-14
-1.014029e-03
-1.434054e-03
1.014029e-03
1.434054e-03
-3.246861e-02
3.491110e-02
3.371824e-02
-1.344894e-02
-3.371824e-02
1.344894e-02
3.080378e-15
-3.491110e-02
-3.625473e-02
1.446065e-02
3.625473e-02
3.246861e-02
2.384239e-02
-2.563596e-02
-1.446065e-02
2.340907e-15
2.563596e-02
-2.384239e-02
-1.219958e-02
1.771783e-14
-6.143893e-03
6.143893e-03
1.730575e-14
1.483267e-02
8.980808e-03
-5.053231e-03
5.053231e-03
-8.980808e-03
-1.544448e-02
1.092089e-02
-1.092089e-02
1.544448e-02
-1.483267e-02
1.219958e-02
1.270078e-02
-1.270078e-02
-3.411977e-02
3.254501e-02
-4.825264e-02
4.825264e-02
-3.254501e-02
4.602560e-02
-1.164412e-14
-4.602560e-02
-1.321510e-14
3.411977e-02
-1.241830e-03
-4.887001e-04
8.781062e-04
1.179826e-03
1.570973e-14
-1.179826e-03
-8.781062e-04
4.887001e-04
1.241830e-03
-1.404622e-02
1.404622e-02
1.986435e-02
-1.986435e-02
1.036251e-14
-2.227864e-02
1.051445e-14
-1.575338e-02
2.227864e-02
1.575338e-02
2.160162e-02
3.054931e-02
-2.160162e-02
3.062227e-15
-3.054931e-02
-3.284741e-02
2.322663e-02
2.323062e-15
3.284741e-02
-2.322663e-02
7.360787e-03
1.040972e-02
-1.040972e-02
-1.276091e-02
1.276091e-02
-9.023326e-03
-7.360787e-03
9.023326e-03
1.271535e-14
1.300038e-14
-5.081198e-02
5.282814e-02
5.081198e-02
-5.282814e-02
-2.294759e-14
-5.437067e-02
5.437067e-02
5.229009e-02
-5.229009e-02
2.165926e-02
2.104701e-02
-3.735514e-02
3.735514e-02
-2.104701e-02
-2.883606e-14
-2.165926e-02
-3.844587e-02
3.844587e-02
-2.901656e-02
-9.104950e-15
2.901656e-02
-3.040835e-02
3.040835e-02
4.103561e-02
-4.103561e-02
-4.300391e-02
-1.090185e-14
4.300391e-02
-2.273462e-03
1.239521e-14
3.215161e-03
2.273462e-03
-3.215161e-03
-5.423109e-03
1.199921e-14
-3.834717e-03
5.423109e-03
3.834717e-03
-3.720520e-02
3.720520e-02
3.829057e-02
-3.829057e-02
5.261609e-02
-5.261609e-02
-5.415105e-02
-2.854424e-14
5.415105e-02
-2.297220e-14
-1.867612e-02
2.008106e-02
2.728563e-02
-2.537665e-02
2.641203e-02
1.051135e-02
2.000677e-15
2.537665e-02
-1.051135e-02
-2.641203e-02
-2.839890e-02
-1.130208e-02
2.018136e-15
-2.728563e-02
1.130208e-02
2.839890e-02
1.867612e-02
-2.008106e-02
-2.171501e-14
2.043039e-02
-2.102204e-02
-3.728403e-02
-2.725150e-14
5.123953e-02
4.932332e-02
3.623182e-02
-2.043039e-02
-5.123953e-02
5.075171e-02
-5.075171e-02
-5.272759e-02
5.272759e-02
-4.932332e-02
-3.623182e-02
3.728403e-02
2.102204e-02
3.093694e-03
7.817576e-03
-7.468838e-03
8.463751e-15
7.468838e-03
5.527861e-03
-3.093694e-03
-7.817576e-03
-9.724931e-03
6.876565e-03
-6.876565e-03
3.848128e-03
9.724931e-03
9.290203e-03
8.416615e-15
-5.527861e-03
-3.848128e-03
-9.290203e-03
4.932016e-02
-2.050549e-14
-4.932016e-02
-5.074354e-02
-2.563318e-14
5.074354e-02
-3.487462e-02
3.487462e-02
3.588110e-02
-3.588110e-02
2.197579e-02
-1.553923e-02
1.154390e-15
-2.197579e-02
-2.362895e-02
1.670819e-02
1.103754e-15
2.362895e-02
1.553923e-02
-1.670819e-02
-2.300716e-02
2.408739e-02
-2.408739e-02
3.253704e-02
-5.523807e-15
2.300716e-02
-3.253704e-02
-3.406471e-02
3.406471e-02
-6.937339e-15
5.892593e-15
6.183623e-15
4.403685e-15
3.668251e-03
-3.668251e-03
4.289607e-15
1.244299e-02
8.798523e-03
-1.244299e-02
-8.798523e-03
2.593845e-03
-2.593845e-03
-5.285236e-03
3.737226e-03
5.285236e-03
-3.737226e-03
9.931131e-03
-1.404474e-02
-9.931131e-03
1.404474e-02
-3.349587e-02
3.256624e-02
-1.791321e-14
1.835929e-02
-1.888249e-02
4.605562e-02
-1.835929e-02
-4.605562e-02
3.349587e-02
-4.737032e-02
1.888249e-02
4.737032e-02
4.432326e-02
-3.256624e-02
-4.432326e-02
4.558636e-02
-2.242580e-14
-4.558636e-02
3.073330e-02
-1.528116e-14
4.227688e-02
-4.227688e-02
-4.346345e-02
4.346345e-02
-2.989427e-02
2.989427e-02
-1.881016e-14
-3.073330e-02
-1.205368e-02
1.296043e-02
6.745555e-03
3.375246e-15
4.616976e-04
-7.252997e-03
1.704648e-02
-1.628521e-02
6.213024e-16
1.628521e-02
1.205368e-02
-6.745555e-03
-1.704648e-02
2.578549e-04
-2.578549e-04
-6.529390e-04
-6.225168e-04
6.529390e-04
-4.616976e-04
-1.832882e-02
1.751028e-02
5.583784e-17
-1.751028e-02
-1.296043e-02
7.252997e-03
1.832882e-02
6.225168e-04
-4.029354e-14
5.674513e-02
-3.000746e-14
-5.674513e-02
-5.750347e-02
5.750347e-02
4.012487e-02
-4.012487e-02
4.066109e-02
-4.066109e-02
-3.582891e-02
3.680882e-02
-1.212885e-14
3.582891e-02
-3.680882e-02
-2.712080e-02
-1.477719e-14
-1.484082e-02
3.733435e-02
-2.639937e-02
2.639937e-02
-3.733435e-02
-3.835461e-02
3.835461e-02
1.524671e-02
1.484082e-02
-1.524671e-02
2.712080e-02
-3.896212e-02
5.510076e-02
-5.510076e-02
3.947995e-02
-2.824848e-14
3.896212e-02
-5.583307e-02
-3.826667e-14
-3.947995e-02
5.583307e-02
-9.201683e-03
9.893890e-03
-6.686226e-16
-3.089977e-15
2.161325e-02
1.528288e-02
-2.161325e-02
9.201683e-03
1.301314e-02
-7.464585e-17
-1.301314e-02
4.032873e-03
1.561096e-15
2.851672e-03
-4.032873e-03
-2.851672e-03
3.549468e-03
-5.019706e-03
5.019706e-03
-3.549468e-03
-1.399207e-02
-9.893890e-03
1.399207e-02
-2.257342e-02
-1.596182e-02
2.257342e-02
-4.110885e-15
-1.528288e-02
1.076261e-15
1.596182e-02
2.263485e-02
-9.078645e-15
3.201051e-02
-3.201051e-02
-2.263485e-02
-1.113659e-14
2.322877e-02
-3.285044e-02
3.285044e-02
-2.322877e-02
4.997858e-02
3.534019e-02
-4.997858e-02
-5.062589e-02
5.062589e-02
-3.153477e-14
-3.579791e-02
3.579791e-02
-3.534019e-02
-2.367178e-14
-1.400301e-15
-2.481879e-02
-6.347734e-15
3.458873e-03
-3.458873e-03
6.187267e-03
-3.719071e-03
-1.053192e-02
2.599065e-02
-1.837817e-02
1.837817e-02
-1.028028e-02
-2.599065e-02
2.481879e-02
8.750116e-03
-8.750116e-03
-6.187267e-03
-8.350458e-03
-3.356749e-16
-9.408354e-03
6.652711e-03
-8.978631e-03
-6.652711e-03
3.719071e-03
9.408354e-03
1.882782e-02
-2.662656e-02
2.542630e-02
-8.357694e-15
-2.542630e-02
-1.882782e-02
1.053192e-02
2.662656e-02
1.028028e-02
8.350458e-03
8.978631e-03
-2.933444e-02
2.969148e-02
4.148516e-02
-1.687310e-14
2.933444e-02
-4.148516e-02
-4.199010e-02
-2.140208e-14
4.199010e-02
-2.969148e-02
-2.142407e-02
1.565619e-02
3.355955e-03
1.588569e-02
-1.282547e-14
3.029820e-02
-9.274910e-15
2.142407e-02
-3.029820e-02
-5.230407e-15
2.214119e-02
-2.214119e-02
-1.565619e-02
9.508847e-03
4.413990e-03
-3.121162e-03
-4.413990e-03
-5.741746e-16
3.121162e-03
-4.746037e-03
-1.077972e-15
-3.355955e-03
4.746037e-03
-1.377569e-02
1.377569e-02
-3.364293e-15
-9.740886e-03
-1.588569e-02
-2.246575e-02
2.246575e-02
-7.387101e-15
-3.061134e-02
-2.164548e-02
3.061134e-02
2.164548e-02
1.344754e-02
-2.043480e-15
-1.344754e-02
-9.508847e-03
9.740886e-03
7.113312e-03
-7.113312e-03
1.717305e-02
-1.717305e-02
-1.273662e-02
1.273662e-02
5.768600e-02
2.296270e-02
-5.543685e-02
-3.174209e-14
5.543685e-02
4.079017e-02
-2.296270e-02
-5.768600e-02
-4.079017e-02
4.062048e-02
5.744603e-02
-3.121908e-14
-5.744603e-02
-4.062048e-02
-3.967556e-02
3.967556e-02
2.235053e-02
5.395895e-02
-2.235053e-02
5.610971e-02
-5.395895e-02
-3.020951e-14
-5.610971e-02
5.432973e-02
-3.841692e-02
-2.814505e-14
3.841692e-02
-5.432973e-02
-3.640862e-02
5.148956e-02
2.050694e-02
-4.950813e-02
-2.532433e-14
4.950813e-02
-2.050694e-02
-5.148956e-02
3.640862e-02
4.825997e-02
-3.412495e-02
-2.264684e-14
3.412495e-02
-4.825997e-02
-1.941370e-14
3.116382e-02
4.407230e-02
1.750089e-02
-3.116382e-02
-4.225088e-02
4.225088e-02
-1.750089e-02
-4.407230e-02
-1.586715e-14
2.797351e-02
3.956052e-02
-2.797351e-02
-3.956052e-02
3.425772e-02
1.348152e-02
-2.422387e-02
-3.254727e-02
-1.218427e-14
3.254727e-02
2.422387e-02
-1.348152e-02
-3.425772e-02
2.667627e-15
-1.188886e-14
-4.639159e-15
1.791676e-15
-5.716671e-16
-2.998686e-15
-1.853217e-15
1.341618e-15
-8.325642e-15
-1.801230e-02
-1.273662e-02
1.801230e-02
1.273662e-02
-5.425628e-15
-3.425772e-02
-1.348152e-02
2.422387e-02
3.254727e-02
-1.653832e-14
-3.254727e-02
-2.422387e-02
1.348152e-02
3.425772e-02
-3.956052e-02
2.797351e-02
3.956052e-02
-2.797351e-02
-2.101957e-14
-4.407230e-02
-1.750089e-02
3.116382e-02
4.225088e-02
-4.225088e-02
1.750089e-02
4.407230e-02
-2.557183e-14
-3.116382e-02
-4.825997e-02
3.412495e-02
-3.026900e-14
-3.412495e-02
4.825997e-02
-3.640862e-02
-5.148956e-02
-2.050694e-02
4.950813e-02
-3.488088e-14
-4.950813e-02
2.050694e-02
5.148956e-02
3.640862e-02
-5.432973e-02
3.841692e-02
-3.921305e-14
-3.841692e-02
5.432973e-02
-5.610971e-02
5.395895e-02
-4.227144e-14
5.610971e-02
-2.235053e-02
-5.395895e-02
2.235053e-02
3.967556e-02
-3.967556e-02
4.062048e-02
-5.744603e-02
-4.449405e-14
5.744603e-02
-4.062048e-02
4.079017e-02
-5.768600e-02
-2.296270e-02
5.543685e-02
-4.525938e-14
-5.543685e-02
-4.079017e-02
2.296270e-02
5.768600e-02
7.113312e-03
1.801230e-02
-1.801230e-02
-3.782910e-15
-7.113312e-03
1.717305e-02
-1.717305e-02
-9.740886e-03
-1.241451e-16
-1.344754e-02
9.508847e-03
-2.785030e-15
1.344754e-02
1.377569e-02
-1.981386e-15
-1.377569e-02
-6.718370e-16
-2.164548e-02
3.061134e-02
-9.680097e-15
2.164548e-02
-3.061134e-02
2.246575e-02
-2.246575e-02
4.746037e-03
-3.355955e-03
3.355955e-03
-4.746037e-03
-4.413990e-03
-3.121162e-03
4.413990e-03
3.121162e-03
-9.508847e-03
1.565619e-02
-1.565619e-02
-2.214119e-02
2.214119e-02
-3.029820e-02
-1.332039e-14
-2.142407e-02
3.029820e-02
2.142407e-02
1.588569e-02
-1.588569e-02
9.740886e-03
-7.654007e-15
-5.320790e-15
2.969148e-02
4.199010e-02
-1.727183e-14
-4.199010e-02
-4.148516e-02
-2.372677e-14
-2.933444e-02
4.148516e-02
-2.969148e-02
2.933444e-02
1.053192e-02
8.978631e-03
-6.187267e-03
2.231979e-16
-1.028028e-02
2.662656e-02
-1.882782e-02
-2.542630e-02
-7.054029e-15
2.542630e-02
1.882782e-02
-1.053192e-02
-2.662656e-02
-6.652711e-03
9.408354e-03
-8.978631e-03
-1.199641e-16
6.652711e-03
-3.719071e-03
-9.408354e-03
-8.750116e-03
6.187267e-03
3.458873e-03
8.750116e-03
-3.458873e-03
1.837817e-02
-2.481879e-02
-2.599065e-02
2.481879e-02
-9.027174e-15
-1.837817e-02
1.028028e-02
2.599065e-02
3.719071e-03
8.350458e-03
-8.350458e-03
3.534019e-02
-3.344054e-14
-3.579791e-02
-2.338023e-14
3.579791e-02
5.062589e-02
-5.062589e-02
-4.997858e-02
-3.534019e-02
4.997858e-02
2.322877e-02
3.285044e-02
-3.285044e-02
-2.322877e-02
-9.940909e-15
2.263485e-02
-3.201051e-02
3.201051e-02
-1.355840e-14
-2.263485e-02
1.399207e-02
-1.399207e-02
-1.596182e-02
3.549468e-03
2.219576e-15
-2.851672e-03
1.528288e-02
-3.689238e-15
2.257342e-02
1.596182e-02
-2.257342e-02
-9.893890e-03
2.149084e-16
9.893890e-03
-3.549468e-03
-4.032873e-03
4.032873e-03
2.851672e-03
-1.301314e-02
9.201683e-03
-9.201683e-03
1.301314e-02
-3.039474e-16
-2.161325e-02
-1.528288e-02
2.161325e-02
-4.704617e-15
5.019706e-03
2.598251e-15
-5.019706e-03
5.583307e-02
-2.786736e-14
3.947995e-02
-5.583307e-02
-4.122129e-14
-3.896212e-02
-3.947995e-02
-5.510076e-02
5.510076e-02
3.896212e-02
1.524671e-02
-2.712080e-02
-1.484082e-02
-1.524671e-02
3.835461e-02
-3.835461e-02
-3.733435e-02
2.639937e-02
-2.639937e-02
3.733435e-02
1.484082e-02
-1.311144e-14
2.712080e-02
3.680882e-02
-3.582891e-02
-1.825907e-14
-3.680882e-02
3.582891e-02
-4.066109e-02
4.066109e-02
4.012487e-02
-4.012487e-02
5.750347e-02
-5.750347e-02
-5.674513e-02
-4.405037e-14
5.674513e-02
-2.931470e-14
6.529390e-04
-2.578549e-04
-6.529390e-04
1.832882e-02
-1.751028e-02
1.275428e-16
1.751028e-02
1.296043e-02
-7.252997e-03
-1.832882e-02
-4.616976e-04
-6.225168e-04
6.225168e-04
-1.704648e-02
1.628521e-02
-3.428472e-16
-1.628521e-02
-1.205368e-02
6.745555e-03
1.704648e-02
7.252997e-03
2.578549e-04
4.751187e-15
4.616976e-04
-6.745555e-03
-1.296043e-02
1.205368e-02
3.073330e-02
-1.587927e-14
-2.989427e-02
2.989427e-02
4.346345e-02
-4.346345e-02
-4.227688e-02
4.227688e-02
-2.265215e-14
-3.073330e-02
-1.820745e-14
4.558636e-02
-4.558636e-02
3.256624e-02
4.432326e-02
-4.432326e-02
4.737032e-02
-1.888249e-02
-4.737032e-02
-3.349587e-02
-4.605562e-02
1.835929e-02
4.605562e-02
1.888249e-02
-1.835929e-02
-2.649069e-14
-3.256624e-02
3.349587e-02
-3.737226e-03
2.593845e-03
1.404474e-02
9.931131e-03
-1.404474e-02
-9.931131e-03
8.798523e-03
-1.244299e-02
-8.798523e-03
1.244299e-02
3.851581e-15
5.285236e-03
3.737226e-03
-5.285236e-03
-3.668251e-03
3.668251e-03
-2.593845e-03
4.667788e-15
6.666617e-15
7.269702e-15
-7.628475e-15
3.406471e-02
-3.406471e-02
-3.253704e-02
-9.780008e-15
-2.300716e-02
3.253704e-02
2.408739e-02
-2.408739e-02
2.300716e-02
1.670819e-02
-1.553923e-02
2.362895e-02
-1.670819e-02
-8.351622e-19
-2.362895e-02
-2.197579e-02
1.553923e-02
-2.316563e-16
2.197579e-02
-3.588110e-02
3.588110e-02
3.487462e-02
-3.487462e-02
5.074354e-02
-2.027209e-14
-5.074354e-02
-4.932016e-02
-3.043253e-14
4.932016e-02
-6.876565e-03
9.290203e-03
3.848128e-03
-3.093694e-03
5.527861e-03
-7.468838e-03
-9.290203e-03
8.114710e-15
9.724931e-03
6.876565e-03
-3.848128e-03
-9.724931e-03
-7.817576e-03
7.468838e-03
9.196989e-15
-5.527861e-03
3.093694e-03
7.817576e-03
-2.102204e-02
-3.728403e-02
3.623182e-02
4.932332e-02
5.272759e-02
-5.272759e-02
-5.075171e-02
5.075171e-02
-5.123953e-02
-4.932332e-02
-3.623182e-02
2.043039e-02
5.123953e-02
-2.136752e-14
3.728403e-02
2.102204e-02
-2.043039e-02
-3.280243e-14
2.008106e-02
-1.867612e-02
2.839890e-02
1.130208e-02
-2.962052e-16
2.728563e-02
-1.130208e-02
-2.839890e-02
-2.641203e-02
-1.051135e-02
4.629508e-16
-2.537665e-02
1.051135e-02
2.641203e-02
2.537665e-02
-2.728563e-02
-2.008106e-02
1.867612e-02
-3.497455e-14
5.415105e-02
-2.230255e-14
-5.415105e-02
-5.261609e-02
5.261609e-02
3.829057e-02
-3.829057e-02
-3.720520e-02
3.720520e-02
-3.834717e-03
1.288427e-14
5.423109e-03
3.834717e-03
-5.423109e-03
-3.215161e-03
1.360065e-14
-2.273462e-03
3.215161e-03
2.273462e-03
4.300391e-02
-1.068449e-14
-4.300391e-02
-4.103561e-02
4.103561e-02
-3.040835e-02
3.040835e-02
-1.547361e-14
-2.901656e-02
2.901656e-02
-3.844587e-02
3.844587e-02
2.165926e-02
-2.222634e-14
-2.104701e-02
3.735514e-02
-3.735514e-02
2.104701e-02
-5.229009e-02
5.229009e-02
-2.165926e-02
5.437067e-02
-5.437067e-02
-3.520945e-14
-5.282814e-02
-5.081198e-02
5.282814e-02
5.081198e-02
1.345403e-14
1.179757e-14
-9.023326e-03
7.360787e-03
9.023326e-03
1.276091e-02
-1.276091e-02
-1.040972e-02
1.040972e-02
-7.360787e-03
2.322663e-02
3.284741e-02
-2.322663e-02
1.136108e-16
-3.284741e-02
-3.054931e-02
2.160162e-02
4.158536e-17
3.054931e-02
-2.160162e-02
-1.575338e-02
2.227864e-02
8.171462e-15
1.575338e-02
-2.227864e-02
9.612729e-15
-1.986435e-02
1.986435e-02
-1.404622e-02
1.404622e-02
1.241830e-03
4.887001e-04
-8.781062e-04
-1.179826e-03
1.699408e-14
1.179826e-03
8.781062e-04
-4.887001e-04
-1.241830e-03
-3.411977e-02
-1.153453e-14
-4.602560e-02
-1.905059e-14
4.602560e-02
3.254501e-02
4.825264e-02
-4.825264e-02
-3.254501e-02
3.411977e-02
-1.270078e-02
1.270078e-02
-1.219958e-02
1.483267e-02
1.544448e-02
-1.092089e-02
1.092089e-02
-1.544448e-02
-5.053231e-03
8.980808e-03
5.053231e-03
-8.980808e-03
-1.483267e-02
1.642901e-14
-6.143893e-03
6.143893e-03
1.815079e-14
1.219958e-02
2.384239e-02
-2.563596e-02
1.446065e-02
5.367997e-16
2.563596e-02
-2.384239e-02
-3.246861e-02
3.625473e-02
-1.446065e-02
-3.625473e-02
3.491110e-02
-1.344894e-02
-3.398579e-16
-3.371824e-02
1.344894e-02
3.371824e-02
-3.491110e-02
3.246861e-02
1.434054e-03
-1.014029e-03
-1.434054e-03
1.014029e-03
2.257794e-14
8.477722e-03
2.374720e-14
5.994655e-03
-8.477722e-03
-3.854987e-03
-5.451775e-03
2.496343e-14
5.451775e-03
3.854987e-03
-5.994655e-03
3.918263e-02
2.770630e-02
-3.918263e-02
-3.644129e-02
-2.576788e-02
3.644129e-02
-2.770630e-02
1.279873e-15
2.576788e-02
-2.816441e-16
1.792061e-02
-1.792061e-02
1.267178e-02
2.308993e-14
-1.481255e-02
1.481255e-02
1.047406e-02
2.110226e-14
-1.267178e-02
-1.047406e-02
4.981846e-02
-1.192040e-14
3.522697e-02
-4.981846e-02
-4.751461e-02
-2.069901e-14
-3.359790e-02
4.751461e-02
3.359790e-02
-3.522697e-02
1.597605e-03
6.344006e-04
-1.129677e-03
-1.531579e-03
1.531579e-03
-6.344006e-04
-1.597605e-03
2.859303e-14
1.129677e-03
2.867246e-02
-2.867246e-02
-2.562606e-02
1.514634e-14
2.562606e-02
-1.812036e-02
-2.027449e-02
1.357892e-14
2.027449e-02
1.812036e-02
-1.630005e-02
4.086830e-02
1.674646e-15
2.889825e-02
-4.086830e-02
-3.800903e-02
-6.132880e-16
-2.687644e-02
3.800903e-02
1.630005e-02
-2.889825e-02
3.935181e-02
1.515965e-02
-1.515965e-02
2.687644e-02
-3.659864e-02
3.659864e-02
-3.935181e-02
7.891542e-03
-1.401997e-02
-1.905187e-02
1.579268e-02
1.162524e-02
-6.541542e-03
2.538380e-14
1.982723e-02
-7.891542e-03
-1.982723e-02
2.735611e-14
-1.579268e-02
-1.644058e-02
6.541542e-03
1.644058e-02
-1.162524e-02
1.401997e-02
1.905187e-02
1.749406e-03
-1.237017e-03
3.334155e-14
1.237017e-03
-1.749406e-03
-2.974380e-02
2.766283e-02
-2.766283e-02
4.206409e-02
2.766280e-15
-4.206409e-02