# vtk DataFile Version 3.0
Unstructured Grid Example
ASCII
DATASET UNSTRUCTURED_GRID
POINTS 1641 float
-9.500000e-01	 0	 0
-9.500000e-01	 0	 3.750000e-01
-9.500000e-01	 0	 1.125000e+00
-9.500000e-01	 0	 1.500000e+00
-9.500000e-01	 0	 1.875000e+00
-9.500000e-01	 0	 2.250000e+00
-9.500000e-01	 0	 2.625000e+00
-9.500000e-01	 0	 3
-9.500000e-01	 0	 7.500000e-01
-9.341401e-01	 -1.728649e-01	 1.500000e+00
-9.341401e-01	 -1.728649e-01	 0
-9.341401e-01	 -1.728649e-01	 3.000000e+00
-9.341401e-01	 1.728649e-01	 2.250000e+00
-9.341401e-01	 1.728649e-01	 0
-9.341401e-01	 1.728649e-01	 1.500000e+00
-9.341401e-01	 1.728649e-01	 3.000000e+00
-9.341401e-01	 -1.728649e-01	 7.500000e-01
-9.341401e-01	 -1.728649e-01	 2.250000e+00
-9.341401e-01	 1.728649e-01	 7.500000e-01
-8.832989e-01	 -3.496900e-01	 1.125000e+00
-8.832989e-01	 -3.496900e-01	 1.875000e+00
-8.832989e-01	 -3.496900e-01	 2.625000e+00
-8.832989e-01	 -3.496900e-01	 2.250000e+00
-8.832989e-01	 3.496900e-01	 1.125000e+00
-8.832989e-01	 -3.496900e-01	 0
-8.832989e-01	 -3.496900e-01	 3.000000e+00
-8.832989e-01	 -3.496900e-01	 3.750000e-01
-8.832989e-01	 -3.496900e-01	 7.500000e-01
-8.832989e-01	 3.496900e-01	 3.750000e-01
-8.832989e-01	 3.496900e-01	 7.500000e-01
-8.832989e-01	 3.496900e-01	 2.250000e+00
-8.832989e-01	 3.496900e-01	 2.625000e+00
-8.832989e-01	 3.496900e-01	 0
-8.832989e-01	 3.496900e-01	 1.875000e+00
-8.832989e-01	 3.496900e-01	 3.000000e+00
-8.832989e-01	 -3.496900e-01	 1.500000e+00
-8.832989e-01	 3.496900e-01	 1.500000e+00
-8.787500e-01	 0	 2.250000e+00
-8.787500e-01	 0	 0
-8.787500e-01	 0	 1.500000e+00
-8.787500e-01	 0	 3
-8.787500e-01	 0	 7.500000e-01
-8.149622e-01	 -3.223238e-01	 7.500000e-01
-8.149622e-01	 3.223238e-01	 7.500000e-01
-8.149622e-01	 -3.223238e-01	 2.250000e+00
-8.149622e-01	 3.223238e-01	 2.250000e+00
-8.149622e-01	 -3.223238e-01	 0
-8.149622e-01	 -3.223238e-01	 1.500000e+00
-8.149622e-01	 -3.223238e-01	 3
-8.149622e-01	 3.223238e-01	 1.500000e+00
-8.149622e-01	 3.223238e-01	 0
-8.149622e-01	 3.223238e-01	 3
-8.075000e-01	 0	 7.500000e-01
-8.075000e-01	 0	 2.250000e+00
-8.075000e-01	 0	 3.750000e-01
-8.075000e-01	 0	 1.875000e+00
-8.075000e-01	 0	 2.625000e+00
-8.075000e-01	 0	 0
-8.075000e-01	 0	 1.125000e+00
-8.075000e-01	 0	 1.500000e+00
-8.075000e-01	 0	 3
-7.951457e-01	 -5.198493e-01	 7.500000e-01
-7.951457e-01	 5.198493e-01	 7.500000e-01
-7.951457e-01	 -5.198493e-01	 0
-7.951457e-01	 -5.198493e-01	 1.500000e+00
-7.951457e-01	 -5.198493e-01	 2.250000e+00
-7.951457e-01	 -5.198493e-01	 3
-7.951457e-01	 5.198493e-01	 0
-7.951457e-01	 5.198493e-01	 1.500000e+00
-7.951457e-01	 5.198493e-01	 2.250000e+00
-7.951457e-01	 5.198493e-01	 3
-7.894916e-01	 -1.451644e-01	 7.500000e-01
-7.894916e-01	 1.451644e-01	 7.500000e-01
-7.894916e-01	 1.451644e-01	 0
-7.894916e-01	 1.451644e-01	 3
-7.894916e-01	 -1.451644e-01	 0
-7.894916e-01	 -1.451644e-01	 1.500000e+00
-7.894916e-01	 -1.451644e-01	 2.250000e+00
-7.894916e-01	 -1.451644e-01	 3
-7.894916e-01	 1.451644e-01	 1.500000e+00
-7.894916e-01	 1.451644e-01	 2.250000e+00
-7.430021e-01	 -2.929055e-01	 1.500000e+00
-7.430021e-01	 2.929055e-01	 1.500000e+00
-7.430021e-01	 -2.929055e-01	 2.250000e+00
-7.430021e-01	 -2.929055e-01	 0
-7.430021e-01	 -2.929055e-01	 3.000000e+00
-7.430021e-01	 2.929055e-01	 3.750000e-01
-7.430021e-01	 -2.929055e-01	 3.750000e-01
-7.430021e-01	 -2.929055e-01	 1.125000e+00
-7.430021e-01	 -2.929055e-01	 1.875000e+00
-7.430021e-01	 -2.929055e-01	 2.625000e+00
-7.430021e-01	 2.929055e-01	 1.125000e+00
-7.430021e-01	 2.929055e-01	 0
-7.430021e-01	 2.929055e-01	 1.875000e+00
-7.430021e-01	 2.929055e-01	 2.250000e+00
-7.430021e-01	 2.929055e-01	 2.625000e+00
-7.430021e-01	 2.929055e-01	 3.000000e+00
-7.430021e-01	 2.929055e-01	 7.500000e-01
-7.430021e-01	 -2.929055e-01	 7.500000e-01
-7.362500e-01	 0	 0
-7.362500e-01	 0	 7.500000e-01
-7.362500e-01	 0	 1.500000e+00
-7.362500e-01	 0	 2.250000e+00
-7.362500e-01	 0	 3
-6.717514e-01	 -6.717514e-01	 2.625000e+00
-6.717514e-01	 6.717514e-01	 2.625000e+00
-6.717514e-01	 -6.717514e-01	 0
-6.717514e-01	 -6.717514e-01	 3.750000e-01
-6.717514e-01	 -6.717514e-01	 7.500000e-01
-6.717514e-01	 -6.717514e-01	 1.125000e+00
-6.717514e-01	 -6.717514e-01	 1.875000e+00
-6.717514e-01	 -6.717514e-01	 3.000000e+00
-6.717514e-01	 -6.717514e-01	 2.250000e+00
-6.717514e-01	 6.717514e-01	 1.500000e+00
-6.717514e-01	 6.717514e-01	 0
-6.717514e-01	 6.717514e-01	 3.750000e-01
-6.717514e-01	 6.717514e-01	 7.500000e-01
-6.717514e-01	 6.717514e-01	 1.125000e+00
-6.717514e-01	 6.717514e-01	 1.875000e+00
-6.717514e-01	 6.717514e-01	 3.000000e+00
-6.717514e-01	 -6.717514e-01	 1.500000e+00
-6.717514e-01	 6.717514e-01	 2.250000e+00
-6.682985e-01	 -2.618048e-01	 0
-6.682985e-01	 -2.618048e-01	 1.500000e+00
-6.682985e-01	 -2.618048e-01	 3
-6.682985e-01	 -2.618048e-01	 7.500000e-01
-6.682985e-01	 -2.618048e-01	 2.250000e+00
-6.682985e-01	 2.618048e-01	 7.500000e-01
-6.682985e-01	 2.618048e-01	 2.250000e+00
-6.682985e-01	 2.618048e-01	 0
-6.682985e-01	 2.618048e-01	 1.500000e+00
-6.682985e-01	 2.618048e-01	 3
-6.665713e-01	 -4.348738e-01	 2.250000e+00
-6.665713e-01	 -4.348738e-01	 7.500000e-01
-6.665713e-01	 4.348738e-01	 7.500000e-01
-6.665713e-01	 4.348738e-01	 2.250000e+00
-6.665713e-01	 -4.348738e-01	 0
-6.665713e-01	 -4.348738e-01	 3
-6.665713e-01	 4.348738e-01	 0
-6.665713e-01	 4.348738e-01	 1.500000e+00
-6.665713e-01	 4.348738e-01	 3
-6.665713e-01	 -4.348738e-01	 1.500000e+00
-6.650000e-01	 0	 7.500000e-01
-6.650000e-01	 0	 0
-6.650000e-01	 0	 3.750000e-01
-6.650000e-01	 0	 1.125000e+00
-6.650000e-01	 0	 1.500000e+00
-6.650000e-01	 0	 1.875000e+00
-6.650000e-01	 0	 2.625000e+00
-6.650000e-01	 0	 3
-6.650000e-01	 0	 2.250000e+00
-6.383743e-01	 -1.144482e-01	 0
-6.383743e-01	 -1.144482e-01	 3.000000e+00
-6.383743e-01	 -1.144482e-01	 7.500000e-01
-6.383743e-01	 -1.144482e-01	 1.500000e+00
-6.383743e-01	 -1.144482e-01	 2.250000e+00
-6.383743e-01	 1.144482e-01	 7.500000e-01
-6.383743e-01	 1.144482e-01	 1.500000e+00
-6.383743e-01	 1.144482e-01	 0
-6.383743e-01	 1.144482e-01	 2.250000e+00
-6.383743e-01	 1.144482e-01	 3.000000e+00
-6.189903e-01	 -6.189903e-01	 0
-6.189903e-01	 -6.189903e-01	 1.500000e+00
-6.189903e-01	 -6.189903e-01	 3.000000e+00
-6.189903e-01	 6.189903e-01	 2.250000e+00
-6.189903e-01	 6.189903e-01	 0
-6.189903e-01	 6.189903e-01	 1.500000e+00
-6.189903e-01	 6.189903e-01	 3.000000e+00
-6.189903e-01	 -6.189903e-01	 2.250000e+00
-6.189903e-01	 -6.189903e-01	 7.500000e-01
-6.189903e-01	 6.189903e-01	 7.500000e-01
-5.937500e-01	 0	 0
-5.937500e-01	 0	 7.500000e-01
-5.937500e-01	 0	 1.500000e+00
-5.937500e-01	 0	 2.250000e+00
-5.937500e-01	 0	 3
-5.917666e-01	 2.294176e-01	 1.875000e+00
-5.917666e-01	 2.294176e-01	 2.250000e+00
-5.917666e-01	 -2.294176e-01	 2.250000e+00
-5.917666e-01	 -2.294176e-01	 0
-5.917666e-01	 -2.294176e-01	 2.625000e+00
-5.917666e-01	 -2.294176e-01	 3
-5.917666e-01	 -2.294176e-01	 1.500000e+00
-5.917666e-01	 -2.294176e-01	 1.875000e+00
-5.917666e-01	 2.294176e-01	 0
-5.917666e-01	 2.294176e-01	 2.625000e+00
-5.917666e-01	 2.294176e-01	 3
-5.917666e-01	 2.294176e-01	 1.500000e+00
-5.917666e-01	 -2.294176e-01	 3.750000e-01
-5.917666e-01	 -2.294176e-01	 7.500000e-01
-5.917666e-01	 -2.294176e-01	 1.125000e+00
-5.917666e-01	 2.294176e-01	 7.500000e-01
-5.917666e-01	 2.294176e-01	 1.125000e+00
-5.917666e-01	 2.294176e-01	 3.750000e-01
-5.620800e-01	 5.620800e-01	 1.125000e+00
-5.620800e-01	 -5.620800e-01	 1.125000e+00
-5.620800e-01	 -5.620800e-01	 3.750000e-01
-5.620800e-01	 -5.620800e-01	 7.500000e-01
-5.620800e-01	 -5.620800e-01	 1.875000e+00
-5.620800e-01	 -5.620800e-01	 2.625000e+00
-5.620800e-01	 5.620800e-01	 3.750000e-01
-5.620800e-01	 5.620800e-01	 7.500000e-01
-5.620800e-01	 5.620800e-01	 1.875000e+00
-5.620800e-01	 -5.620800e-01	 0
-5.620800e-01	 -5.620800e-01	 1.500000e+00
-5.620800e-01	 -5.620800e-01	 2.250000e+00
-5.620800e-01	 -5.620800e-01	 3
-5.620800e-01	 5.620800e-01	 0
-5.620800e-01	 5.620800e-01	 1.500000e+00
-5.620800e-01	 5.620800e-01	 2.250000e+00
-5.620800e-01	 5.620800e-01	 3
-5.620800e-01	 5.620800e-01	 2.625000e+00
-5.250231e-01	 -3.396892e-01	 7.500000e-01
-5.250231e-01	 3.396892e-01	 1.500000e+00
-5.250231e-01	 3.396892e-01	 2.250000e+00
-5.250231e-01	 3.396892e-01	 7.500000e-01
-5.250231e-01	 -3.396892e-01	 2.250000e+00
-5.250231e-01	 -3.396892e-01	 0
-5.250231e-01	 -3.396892e-01	 1.500000e+00
-5.250231e-01	 -3.396892e-01	 3.000000e+00
-5.250231e-01	 3.396892e-01	 0
-5.250231e-01	 3.396892e-01	 3.000000e+00
-5.225000e-01	 0	 1.500000e+00
-5.225000e-01	 0	 2.250000e+00
-5.225000e-01	 0	 0
-5.225000e-01	 0	 3.750000e-01
-5.225000e-01	 0	 7.500000e-01
-5.225000e-01	 0	 1.125000e+00
-5.225000e-01	 0	 1.875000e+00
-5.225000e-01	 0	 2.625000e+00
-5.225000e-01	 0	 3
-5.198493e-01	 7.951457e-01	 7.500000e-01
-5.198493e-01	 -7.951457e-01	 7.500000e-01
-5.198493e-01	 -7.951457e-01	 0
-5.198493e-01	 -7.951457e-01	 1.500000e+00
-5.198493e-01	 -7.951457e-01	 2.250000e+00
-5.198493e-01	 -7.951457e-01	 3
-5.198493e-01	 7.951457e-01	 0
-5.198493e-01	 7.951457e-01	 1.500000e+00
-5.198493e-01	 7.951457e-01	 2.250000e+00
-5.198493e-01	 7.951457e-01	 3
-5.143216e-01	 -1.961513e-01	 2.250000e+00
-5.143216e-01	 1.961513e-01	 7.500000e-01
-5.143216e-01	 1.961513e-01	 1.500000e+00
-5.143216e-01	 -1.961513e-01	 7.500000e-01
-5.143216e-01	 -1.961513e-01	 0
-5.143216e-01	 -1.961513e-01	 3.000000e+00
-5.143216e-01	 -1.961513e-01	 1.500000e+00
-5.143216e-01	 1.961513e-01	 2.250000e+00
-5.143216e-01	 1.961513e-01	 0
-5.143216e-01	 1.961513e-01	 3.000000e+00
-5.020120e-01	 -5.020120e-01	 7.500000e-01
-5.020120e-01	 -5.020120e-01	 1.500000e+00
-5.020120e-01	 5.020120e-01	 7.500000e-01
-5.020120e-01	 5.020120e-01	 1.500000e+00
-5.020120e-01	 -5.020120e-01	 0
-5.020120e-01	 -5.020120e-01	 2.250000e+00
-5.020120e-01	 -5.020120e-01	 3.000000e+00
-5.020120e-01	 5.020120e-01	 0
-5.020120e-01	 5.020120e-01	 2.250000e+00
-5.020120e-01	 5.020120e-01	 3.000000e+00
-4.847636e-01	 8.158725e-02	 7.500000e-01
-4.847636e-01	 -8.158725e-02	 7.500000e-01
[...]
POINT_DATA 1641
SCALARS pres_adim float 1
LOOKUP_TABLE default
-3.246422e-02
-2.294494e-02
2.294494e-02
3.246422e-02
2.294494e-02
-1.076049e-13
-2.294494e-02
-3.246422e-02
5.294301e-14
3.246422e-02
-3.246422e-02
-3.246422e-02
-1.131027e-13
-3.246422e-02
3.246422e-02
-3.246422e-02
3.577812e-14
-9.663863e-14
6.736278e-14
2.294494e-02
2.294494e-02
-2.294494e-02
-8.317522e-14
2.294494e-02
-3.246422e-02
-3.246422e-02
-2.294494e-02
1.893947e-14
-2.294494e-02
7.759529e-14
-1.138719e-13
-2.294494e-02
-3.246422e-02
2.294494e-02
-3.246422e-02
3.246422e-02
3.246422e-02
-1.063929e-13
-3.246422e-02
3.246422e-02
-3.246422e-02
5.182537e-14
1.830991e-14
7.772522e-14
-8.331239e-14
-1.130973e-13
-3.246422e-02
3.246422e-02
-3.246422e-02
3.246422e-02
-3.246422e-02
-3.246422e-02
5.054589e-14
-1.045666e-13
-2.294494e-02
2.294494e-02
-2.294494e-02
-3.246422e-02
2.294494e-02
3.246422e-02
-3.246422e-02
-4.502292e-16
8.840656e-14
-3.246422e-02
3.246422e-02
-6.710148e-14
-3.246422e-02
-3.246422e-02
3.246422e-02
-1.113338e-13
-3.246422e-02
3.545704e-14
6.434454e-14
-3.246422e-02
-3.246422e-02
-3.246422e-02
3.246422e-02
-9.504278e-14
-3.246422e-02
3.246422e-02
-1.097912e-13
3.246422e-02
3.246422e-02
-8.137215e-14
-3.246422e-02
-3.246422e-02
-2.294494e-02
-2.294494e-02
2.294494e-02
2.294494e-02
-2.294494e-02
2.294494e-02
-3.246422e-02
2.294494e-02
-1.110190e-13
-2.294494e-02
-3.246422e-02
7.657929e-14
1.781831e-14
-3.246422e-02
4.861758e-14
3.246422e-02
-1.009896e-13
-3.246422e-02
-2.294494e-02
-2.294494e-02
-3.246422e-02
-2.294494e-02
-2.021987e-14
2.294494e-02
2.294494e-02
-3.246422e-02
-4.598024e-14
3.246422e-02
-3.246422e-02
-2.294494e-02
9.190369e-14
2.294494e-02
2.294494e-02
-3.246422e-02
3.246422e-02
-1.053377e-13
-3.246422e-02
3.246422e-02
-3.246422e-02
1.716876e-14
-7.853629e-14
7.295714e-14
-1.069590e-13
-3.246422e-02
3.246422e-02
-3.246422e-02
-6.438862e-14
-7.876698e-16
8.519465e-14
-1.088529e-13
-3.246422e-02
-3.246422e-02
-3.246422e-02
3.246422e-02
-3.246422e-02
3.246422e-02
4.532607e-14
-3.246422e-02
-2.294494e-02
2.294494e-02
3.246422e-02
2.294494e-02
-2.294494e-02
-3.246422e-02
-9.683220e-14
-3.246422e-02
-3.246422e-02
3.197938e-14
3.246422e-02
-8.727975e-14
5.707902e-14
3.246422e-02
-3.246422e-02
-1.006118e-13
-3.246422e-02
-3.246422e-02
3.246422e-02
-3.246422e-02
-1.050138e-13
-3.246422e-02
3.246422e-02
-3.246422e-02
-4.578105e-14
-2.030799e-14
9.177447e-14
-3.246422e-02
4.222417e-14
3.246422e-02
-8.992759e-14
-3.246422e-02
2.294494e-02
-1.005117e-13
-7.436766e-14
-3.246422e-02
-2.294494e-02
-3.246422e-02
3.246422e-02
2.294494e-02
-3.246422e-02
-2.294494e-02
-3.246422e-02
3.246422e-02
-2.294494e-02
1.596691e-14
2.294494e-02
6.753247e-14
2.294494e-02
-2.294494e-02
2.294494e-02
2.294494e-02
-2.294494e-02
-1.990070e-14
2.294494e-02
-2.294494e-02
-2.294494e-02
8.926978e-14
2.294494e-02
-3.246422e-02
3.246422e-02
-4.453354e-14
-3.246422e-02
-3.246422e-02
3.246422e-02
-1.038501e-13
-3.246422e-02
-2.294494e-02
-1.525026e-15
3.246422e-02
-9.904776e-14
7.465521e-14
-5.818549e-14
-3.246422e-02
3.246422e-02
-3.246422e-02
-3.246422e-02
-3.246422e-02
3.246422e-02
-8.349740e-14
-3.246422e-02
-2.294494e-02
3.757960e-14
2.294494e-02
2.294494e-02
-2.294494e-02
-3.246422e-02
9.026653e-14
-3.861996e-14
-3.246422e-02
3.246422e-02
-2.206555e-14
-3.246422e-02
-3.246422e-02
3.246422e-02
-9.922921e-14
-3.246422e-02
-6.883761e-14
5.956016e-14
3.246422e-02
1.459074e-14
-3.246422e-02
-3.246422e-02
3.246422e-02
-9.276768e-14
-3.246422e-02
-3.246422e-02
-1.939324e-14
3.246422e-02
8.571168e-14
3.246422e-02
-3.246422e-02
-4.251966e-14
-3.246422e-02
-3.246422e-02
-1.000468e-13
-3.246422e-02
4.490601e-14
2.544793e-14
-3.246422e-02
3.246422e-02
-3.246422e-02
-7.459932e-14
-3.246422e-02
3.246422e-02
-8.372950e-14
-3.246422e-02
3.246422e-02
-7.532348e-14
-3.246422e-02
3.262798e-14
-3.246422e-02
2.294494e-02
2.294494e-02
-3.246422e-02
-2.294494e-02
-3.246422e-02
-2.294494e-02
3.246422e-02
2.294494e-02
-3.246422e-02
-2.294494e-02
-3.246422e-02
2.294494e-02
-3.886129e-14
-9.421847e-14
-2.294494e-02
3.246422e-02
7.774342e-14
-1.877659e-14
2.294494e-02
3.246422e-02
-2.294494e-02
-2.294494e-02
3.246422e-02
2.294494e-02
-6.205954e-14
-2.294494e-02
-2.294494e-02
1.197862e-14
-3.246422e-02
5.000956e-14
-8.304974e-14
-3.246422e-02
2.294494e-02
2.294494e-02
-3.246422e-02
-3.246422e-02
-9.646864e-14
-2.113155e-14
-3.246422e-02
-3.246422e-02
-3.662707e-14
-3.246422e-02
3.246422e-02
-3.246422e-02
3.246422e-02
8.702205e-14
-3.246422e-02
-2.294494e-02
2.648825e-14
2.294494e-02
3.246422e-02
2.294494e-02
-6.644049e-14
-2.294494e-02
-3.246422e-02
-1.917081e-15
-4.779830e-14
-3.246422e-02
-3.246422e-02
3.246422e-02
-3.246422e-02
3.246422e-02
-8.031347e-14
-3.246422e-02
5.361438e-14
-3.516946e-14
-3.246422e-02
-1.747057e-14
3.246422e-02
-3.246422e-02
-3.246422e-02
6.744537e-14
3.246422e-02
-3.246422e-02
-8.615056e-14
-5.524722e-14
-3.246422e-02
-3.246422e-02
-3.246422e-02
-3.246422e-02
-7.223448e-14
1.002987e-14
3.995901e-14
3.246422e-02
3.246422e-02
2.294494e-02
-3.246422e-02
2.294494e-02
-3.246422e-02
3.246422e-02
-3.246422e-02
-3.246422e-02
2.294494e-02
2.294494e-02
-2.294494e-02
-2.294494e-02
-5.157501e-14
1.824801e-15
-2.294494e-02
3.246422e-02
-2.294494e-02
-8.752376e-14
8.384415e-14
-3.453482e-14
3.246422e-02
-1.856787e-14
-8.806182e-14
7.661611e-14
-3.246422e-02
-3.246422e-02
-3.246422e-02
3.246422e-02
-3.246422e-02
1.724273e-14
3.246422e-02
-3.246422e-02
-5.676608e-14
-3.246422e-02
-3.246422e-02
3.246422e-02
-6.360767e-14
-3.246422e-02
2.860508e-14
-5.142662e-14
1.776601e-15
8.320128e-14
-8.685178e-14
-3.246422e-02
-3.246422e-02
-3.246422e-02
3.246422e-02
-3.246422e-02
3.246422e-02
-1.650027e-14
5.522676e-14
2.294494e-02
2.294494e-02
-3.246422e-02
-2.294494e-02
3.246422e-02
2.294494e-02
-2.294494e-02
-3.246422e-02
-3.246422e-02
-2.294494e-02
3.246422e-02
2.294494e-02
-2.294494e-02
-3.246422e-02
-3.124436e-14
-7.625757e-14
3.246422e-02
-2.294494e-02
-2.294494e-02
-8.515912e-14
3.246422e-02
-3.246422e-02
2.294494e-02
1.668698e-15
-2.294494e-02
-3.246422e-02
2.294494e-02
2.294494e-02
-3.246422e-02
-3.246422e-02
2.294494e-02
-5.112200e-14
8.066307e-14
-2.294494e-02
-2.294494e-02
-3.246422e-02
2.294494e-02
3.246422e-02
2.294494e-02
-4.723036e-14
-2.294494e-02
-3.246422e-02
-3.246422e-02
2.925349e-14
-5.994591e-14
-2.294494e-02
-3.246422e-02
2.294494e-02
3.246422e-02
7.426070e-15
-2.294494e-02
2.294494e-02
-3.246422e-02
3.246422e-02
-3.246422e-02
-3.246422e-02
3.246422e-02
-3.246422e-02
-5.021006e-14
2.302745e-15
7.697942e-14
-8.267643e-14
-3.246422e-02
-1.502729e-14
3.246422e-02
-3.246422e-02
-3.246422e-02
4.403840e-14
3.246422e-02
-3.246422e-02
-2.694948e-14
-6.453993e-14
-3.078488e-14
5.604429e-14
-7.093319e-14
-3.246422e-02
3.246422e-02
-1.457515e-14
-3.246422e-02
-3.246422e-02
-3.246422e-02
3.246422e-02
3.246422e-02
3.246422e-02
3.246422e-02
-3.246422e-02
-3.246422e-02
3.246422e-02
-3.246422e-02
-3.500771e-14
-3.246422e-02
-3.663158e-15
-4.301609e-14
8.438085e-15
-3.246422e-02
1.926590e-14
-3.246422e-02
-4.989505e-14
3.084273e-14
-3.246422e-02
-5.626856e-14
-3.246422e-02
-7.798257e-14
2.602789e-15
3.246422e-02
-2.294494e-02
-2.294494e-02
-3.246422e-02
-2.294494e-02
-3.246422e-02
7.161630e-14
-3.246422e-02
-2.294494e-02
-3.246422e-02
2.294494e-02
-4.787905e-14
2.294494e-02
2.294494e-02
3.246422e-02
2.294494e-02
6.348820e-14
3.246422e-02
-3.246422e-02
-3.246422e-02
-3.246422e-02
-3.246422e-02
-4.596102e-14
2.042994e-15
3.246422e-02
-7.148186e-14
-1.385258e-14
3.121739e-14
-2.294494e-02
3.246422e-02
9.175226e-15
-2.294494e-02
-3.246422e-02
2.294494e-02
3.246422e-02
2.294494e-02
-2.294955e-14
-2.294494e-02
-3.246422e-02
-2.294494e-02
-2.294494e-02
-3.246422e-02
2.294494e-02
-3.246422e-02
-3.908527e-14
-3.246422e-02
2.294494e-02
3.246422e-02
2.294494e-02
-5.261405e-14
-2.294494e-02
-3.246422e-02
2.294494e-02
3.246422e-02
-3.246422e-02
3.246422e-02
-3.246422e-02
-3.246422e-02
-3.246422e-02
2.462622e-14
-6.420552e-14
7.400481e-14
-7.465296e-14
2.294494e-02
2.294494e-02
3.246422e-02
2.294494e-02
2.294494e-02
-6.338755e-14
3.246422e-02
-2.294494e-02
-3.246422e-02
-4.308277e-14
1.477288e-15
-3.246422e-02
-3.246422e-02
-3.246422e-02
-2.294494e-02
-2.294494e-02
-2.294494e-02
5.328553e-14
-6.280874e-14
-3.246422e-02
-3.246422e-02
7.103197e-14
3.246422e-02
2.422539e-14
-3.246422e-02
3.246422e-02
-7.240328e-14
-3.246422e-02
-1.315954e-14
2.127233e-14
3.246422e-02
3.246422e-02
-3.246422e-02
-1.055366e-14
-3.246422e-02
-1.989662e-14
-3.246422e-02
3.246422e-02
-3.246422e-02
-3.246422e-02
3.246422e-02
-2.702196e-14
-3.246422e-02
-1.002321e-15
1.053109e-14
-3.246422e-02
-3.246422e-02
-3.465714e-14
-3.246422e-02
-4.113214e-14
-3.246422e-02
-3.246422e-02
-4.807357e-14
-3.246422e-02
3.246422e-02
-2.517794e-14
3.246422e-02
3.238995e-14
-8.816587e-17
3.246422e-02
-3.246422e-02
-3.246422e-02
-3.992999e-14
3.246422e-02
4.299785e-14
-3.246422e-02
-3.246422e-02
-5.435435e-14
-3.246422e-02
2.168230e-14
-3.246422e-02
-3.246422e-02
-3.246422e-02
3.246422e-02
-6.613911e-14
6.321515e-14
-5.940572e-14
3.246422e-02
3.246422e-02
2.294494e-02
3.246422e-02
-2.294494e-02
-2.294494e-02
-1.561602e-14
-2.294494e-02
-2.294494e-02
-3.246422e-02
-3.531243e-14
-2.350312e-16
-2.294494e-02
-3.246422e-02
2.294494e-02
-3.246422e-02
-3.246422e-02
-1.224599e-14
2.294494e-02
3.246422e-02
-3.246422e-02
1.055488e-14
2.294494e-02
-2.976123e-14
-2.294494e-02
-3.246422e-02
3.243373e-14
-3.246422e-02
2.294494e-02
3.246422e-02
2.294494e-02
-4.431566e-14
-2.294494e-02
-3.246422e-02
-2.294494e-02
2.294494e-02
2.294494e-02
-5.344465e-14
4.975260e-14
-3.246422e-02
3.246422e-02
1.635908e-14
-3.246422e-02
-3.246422e-02
3.246422e-02
-3.246422e-02
-5.512807e-14
-4.432116e-14
2.514777e-15
7.115066e-17
2.172228e-14
3.246422e-02
-3.246422e-02
3.246422e-02
9.958078e-15
-3.246422e-02
3.246422e-02
-3.246422e-02
-3.246422e-02
-3.425027e-14
-4.148095e-15
-3.246422e-02
-1.068782e-14
-3.246422e-02
3.246422e-02
-1.191673e-14
-3.246422e-02
3.246422e-02
-1.829817e-14
-3.246422e-02
-3.246422e-02
-3.246422e-02
3.246422e-02
-2.674928e-14
-3.350189e-14
-3.246422e-02
-3.246422e-02
3.246422e-02
-3.246422e-02
-4.056419e-14
-3.246422e-02
3.276257e-14
-3.246422e-02
3.246422e-02
-3.246422e-02
-2.266138e-14
1.176039e-14
-2.294494e-02
-2.294494e-02
2.294494e-02
2.294494e-02
-3.284543e-14
7.108662e-15
-3.246422e-02
-2.294494e-02
2.294494e-02
3.246422e-02
2.294494e-02
4.468293e-14
-2.294494e-02
-3.246422e-02
-7.281890e-14
4.452457e-14
-3.246422e-02
3.246422e-02
-3.246422e-02
-7.298116e-14
-7.215792e-14
4.354867e-14
-2.294494e-02
2.294494e-02
-2.294494e-02
-3.246422e-02
2.294494e-02
3.246422e-02
-3.246422e-02
-3.246422e-02
-7.105856e-14
3.246422e-02
4.109742e-14
-3.246422e-02
-6.844511e-14
-3.246422e-02
-2.294494e-02
2.294494e-02
3.246422e-02
2.294494e-02
-2.294494e-02
-3.246422e-02
3.774656e-14
-3.246422e-02
-6.541097e-14
3.246422e-02
3.506711e-14
-3.246422e-02
3.246422e-02
3.085728e-14
-3.246422e-02
-2.294494e-02
-6.153711e-14
2.294494e-02
2.294494e-02
-2.294494e-02
-3.246422e-02
3.246422e-02
2.613744e-14
-3.246422e-02
-5.744435e-14
-3.246422e-02
-3.246422e-02
-2.294494e-02
-5.261699e-14
2.294494e-02
3.246422e-02
2.294494e-02
2.142448e-14
-2.294494e-02
-3.246422e-02
-3.246422e-02
-3.246422e-02
2.294494e-02
2.294494e-02
3.246422e-02
-9.557144e-15
-6.882422e-15
-2.294494e-02
-2.294494e-02
-3.246422e-02
-2.283989e-14
-3.246422e-02
1.192024e-14
3.246422e-02
-3.246422e-02
-2.294494e-02
3.243303e-14
2.294494e-02
3.246422e-02
2.294494e-02
-3.578750e-14
-2.294494e-02
-3.246422e-02
-3.246422e-02
3.812688e-14
-3.246422e-02
-4.045294e-14
3.246422e-02
-3.246422e-02
-2.294494e-02
4.346638e-14
2.294494e-02
2.294494e-02
-2.294494e-02
-3.246422e-02
3.246422e-02
-4.528536e-14
-3.246422e-02
4.939338e-14
3.246422e-02
-4.898663e-14
-3.246422e-02
-5.323058e-14
-3.246422e-02
-2.294494e-02
2.294494e-02
3.246422e-02
2.294494e-02
-2.294494e-02
-3.246422e-02
5.379807e-14
-3.246422e-02
5.694541e-14
3.246422e-02
-5.591978e-14
-3.246422e-02
-3.246422e-02
2.294494e-02
3.246422e-02
-3.246422e-02
-2.294494e-02
2.294494e-02
-2.294494e-02
5.877681e-14
-5.793991e-14
5.965889e-14
-3.246422e-02
3.246422e-02
-3.246422e-02
-5.923207e-14
5.988322e-14
-3.246422e-02
-2.294494e-02
2.294494e-02
3.246422e-02
2.294494e-02
-5.944684e-14
-2.294494e-02
-3.246422e-02
-2.294494e-02
-3.246422e-02
-3.246422e-02
3.246422e-02
-2.294494e-02
2.294494e-02
2.294494e-02
-3.112608e-14
3.246422e-02
-3.246422e-02
-4.366078e-17
3.246422e-02
-3.246422e-02
-3.246422e-02
3.246422e-02
-3.246422e-02
3.246422e-02
-5.121221e-14
-3.246422e-02
3.246422e-02
2.551761e-14
-3.246422e-02
-3.246422e-02
-3.246422e-02
-3.246422e-02
-2.070412e-14
4.781469e-15
-3.246422e-02
-3.246422e-02
-3.056983e-15
-3.246422e-02
-1.001642e-14
-1.051177e-14
1.150938e-14
-1.789249e-14
-3.246422e-02
-3.246422e-02
-3.246422e-02
3.246422e-02
-2.516318e-14
-3.246422e-02
2.198518e-14
1.880812e-14
-4.253838e-14
1.107870e-14
3.246422e-02
3.246422e-02
4.079224e-14
-3.246422e-02
3.246422e-02
-3.246422e-02
-3.246422e-02
3.246422e-02
-3.014217e-14
-3.246422e-02
-6.539570e-14
3.215600e-14
-2.294494e-02
2.294494e-02
1.752032e-15
3.246422e-02
-2.294494e-02
-3.246422e-02
-5.051454e-14
2.294494e-02
3.246422e-02
2.294494e-02
2.991800e-14
-2.294494e-02
-3.246422e-02
-3.041995e-14
-3.246422e-02
2.294494e-02
3.246422e-02
1.604383e-14
-2.294494e-02
-3.246422e-02
-3.246422e-02
-9.954655e-15
-2.294494e-02
-3.246422e-02
-2.294494e-02
1.165340e-14
2.294494e-02
-3.246422e-02
2.294494e-02
3.246422e-02
-1.321149e-14
-2.294494e-02
-3.246422e-02
-2.294494e-02
2.294494e-02
2.294494e-02
3.986426e-14
3.246422e-02
-7.461724e-14
3.246422e-02
5.225317e-14
-3.246422e-02
-3.246422e-02
-3.246422e-02
-3.625683e-14
-3.246422e-02
4.101569e-14
-3.246422e-02
-3.246422e-02
-5.951251e-14
3.246422e-02
1.585438e-14
-3.246422e-02
-3.246422e-02
3.246422e-02
-1.389037e-14
-3.246422e-02
-3.246422e-02
-4.961455e-14
2.101061e-14
3.246422e-02
1.354458e-14
7.859097e-16
3.246422e-02
-3.246422e-02
3.507286e-14
-3.246422e-02
-4.022787e-14
3.246422e-02
2.848252e-14
-3.065283e-14
-3.246422e-02
-3.246422e-02
-2.126911e-14
-3.246422e-02
-9.854155e-15
6.349752e-15
-3.246422e-02
3.246422e-02
-3.246422e-02
-1.152429e-15
-3.246422e-02
3.246422e-02
-3.246422e-02
3.246422e-02
-3.246422e-02
-3.246422e-02
3.246422e-02
6.028729e-14
-3.246422e-02
3.246422e-02
-4.144303e-14
-7.913010e-14
-3.246422e-02
-3.246422e-02
4.479963e-14
-2.294494e-02
-6.745237e-14
-2.294494e-02
-2.294494e-02
-3.246422e-02
-3.246422e-02
-3.246422e-02
1.913562e-14
-1.386969e-14
-3.246422e-02
-2.294494e-02
3.246422e-02
5.159056e-14
2.294494e-02
2.294494e-02
3.246422e-02
2.294494e-02
2.294494e-02
-7.989400e-14
6.331225e-14
4.515148e-14
-4.330648e-14
-3.246422e-02
-3.246422e-02
-3.246422e-02
3.246422e-02
-3.246422e-02
3.246422e-02
-3.246422e-02
-2.294494e-02
-3.246422e-02
-3.246422e-02
2.294494e-02
3.246422e-02
2.294494e-02
4.046117e-14
-2.294494e-02
-3.246422e-02
-3.024512e-14
2.294494e-02
2.294494e-02
-3.246422e-02
2.294494e-02
3.246422e-02
2.294494e-02
1.099668e-14
-2.294494e-02
-3.246422e-02
-2.294494e-02
-2.294494e-02
3.246422e-02
2.596675e-14
-2.294494e-02
-4.954409e-14
-1.006416e-14
5.986343e-14
3.246422e-02
-1.531201e-14
2.198509e-14
-3.246422e-02
-3.246422e-02
-3.246422e-02
-3.246422e-02
3.246422e-02
-7.436679e-14
3.246422e-02
2.294494e-02
2.294494e-02
2.431388e-14
2.294494e-02
2.294494e-02
-3.246422e-02
-2.294494e-02
-3.246422e-02
-7.944336e-14
-3.246422e-02
-2.294494e-02
-3.246422e-02
-2.294494e-02
-2.294494e-02
3.246422e-02
-1.664542e-14
6.664556e-14
-3.947297e-14
-2.927038e-14
-3.246422e-02
4.555667e-14
-3.246422e-02
-4.884782e-14
-2.017037e-14
-3.246422e-02
2.278095e-14
-3.246422e-02
3.246422e-02
-3.246422e-02
3.795145e-14
-3.246422e-02
-3.246422e-02
-3.246422e-02
3.081060e-14
3.246422e-02
3.246422e-02
3.246422e-02
3.246422e-02
-3.246422e-02
-3.246422e-02
-3.246422e-02
3.246422e-02
2.958002e-15
-3.246422e-02
6.110570e-14
-6.855609e-14
5.783585e-15
5.563947e-14
1.576524e-14
-3.246422e-02
-5.995780e-14
3.246422e-02
-3.246422e-02
-3.246422e-02
-8.901601e-15
3.246422e-02
-3.246422e-02
-8.308235e-14
7.177012e-14
2.647131e-14
-1.856678e-14
-3.246422e-02
3.246422e-02
-3.246422e-02
-3.246422e-02
3.246422e-02
-3.246422e-02
-4.773530e-14
2.294494e-02
-2.294494e-02
-2.294494e-02
-2.936342e-14
2.294494e-02
2.294494e-02
3.246422e-02
-3.246422e-02
4.988464e-14
-2.294494e-02
-3.246422e-02
-3.246422e-02
2.294494e-02
3.246422e-02
3.451414e-14
-2.294494e-02
-3.246422e-02
-2.294494e-02
-8.569482e-14
2.795359e-14
2.294494e-02
-3.246422e-02
-3.246422e-02
2.294494e-02
2.294494e-02
-3.246422e-02
2.294494e-02
-2.049723e-14
-2.294494e-02
-3.246422e-02
3.246422e-02
7.593358e-14
-2.294494e-02
-2.294494e-02
3.246422e-02
6.899053e-14
1.975308e-14
-3.246422e-02
-2.294494e-02
3.246422e-02
2.294494e-02
-2.294494e-02
-3.246422e-02
-3.246422e-02
-2.294494e-02
3.246422e-02
2.294494e-02
-2.294494e-02
-3.246422e-02
2.294494e-02
2.294494e-02
-6.890299e-14
-8.620218e-15
3.246422e-02
-3.246422e-02
3.246422e-02
-3.246422e-02
-3.246422e-02
-3.246422e-02
7.937969e-14
-8.742632e-14
-2.122456e-14
2.843221e-14
-4.738925e-14
3.246422e-02
-3.246422e-02
5.468507e-14
-3.246422e-02
-3.246422e-02
3.246422e-02
4.637089e-14
-3.246422e-02
-3.783830e-14
-3.246422e-02
3.246422e-02
-3.246422e-02
-3.246422e-02
-3.246422e-02
-8.216296e-14
7.994459e-14
3.246422e-02
4.098190e-15
7.681148e-15
-8.840624e-14
8.056378e-14
-2.294494e-02
3.246422e-02
-2.294494e-02
2.896947e-14
-2.239827e-14
-2.294494e-02
2.294494e-02
2.294494e-02
-2.294494e-02
-3.246422e-02
-3.246422e-02
3.246422e-02
-3.246422e-02
2.294494e-02
-3.246422e-02
2.294494e-02
3.246422e-02
3.246422e-02
-5.793536e-14
-3.185829e-14
6.508372e-14
-3.246422e-02
-3.246422e-02
-3.246422e-02
-3.246422e-02
4.408194e-14
8.126672e-14
-3.246422e-02
-7.680332e-14
3.246422e-02
-3.246422e-02
-3.246422e-02
-8.895920e-15
3.246422e-02
-3.246422e-02
2.294089e-14
-6.801362e-14
-3.246422e-02
3.246422e-02
7.420528e-14
-3.246422e-02
3.246422e-02
-3.246422e-02
-3.246422e-02
3.656942e-14
-2.258538e-14
-3.246422e-02
-2.294494e-02
-4.631622e-14
2.294494e-02
3.246422e-02
2.294494e-02
5.874767e-14
-2.294494e-02
-3.246422e-02
-8.970567e-14
3.246422e-02
-3.246422e-02
3.246422e-02
-3.246422e-02
9.809520e-15
-3.246422e-02
-3.246422e-02
4.277268e-15
9.168498e-14
-3.246422e-02
-3.246422e-02
2.294494e-02
2.294494e-02
-3.246422e-02
-6.611838e-14
7.887099e-14
-3.246422e-02
-2.294494e-02
-3.566263e-14
-2.294494e-02
5.189697e-14
2.294494e-02
3.246422e-02
-2.294494e-02
-2.294494e-02
3.246422e-02
2.294494e-02
-9.506497e-15
-8.264342e-14
-2.294494e-02
3.246422e-02
9.088762e-14
2.562207e-14
2.294494e-02
-3.246422e-02
-2.294494e-02
-3.246422e-02
2.294494e-02
-2.294494e-02
3.246422e-02
-3.246422e-02
-2.294494e-02
-3.246422e-02
2.294494e-02
2.294494e-02
-3.246422e-02
-5.263649e-14
-3.246422e-02
6.856016e-14
3.246422e-02
-3.246422e-02
3.246422e-02
7.901435e-14
-3.246422e-02
6.536774e-14
-3.246422e-02
3.246422e-02
-3.246422e-02
-4.732373e-14
-6.225830e-14
-3.246422e-02
9.892709e-14
-3.246422e-02
-3.246422e-02
2.694640e-14
-3.246422e-02
-8.653429e-14
3.246422e-02
-8.903516e-15
3.246422e-02
-3.246422e-02
-3.246422e-02
9.086386e-14
3.246422e-02
-3.246422e-02
-3.246422e-02
-3.950506e-14
3.246422e-02
-7.364430e-14
5.844294e-14
-3.246422e-02
3.246422e-02
9.534408e-14
-3.246422e-02
-3.246422e-02
3.246422e-02
3.364504e-15
-3.246422e-02
9.923364e-15
-9.283991e-14
-3.246422e-02
-2.294494e-02
-5.821998e-14
2.294494e-02
2.294494e-02
-2.294494e-02
-3.246422e-02
3.246422e-02
7.653772e-14
-3.246422e-02
-3.246422e-02
-3.246422e-02
3.246422e-02
-3.246422e-02
4.572716e-14
-8.161451e-14
3.246422e-02
9.827754e-14
-2.549376e-14
-2.294494e-02
-3.246422e-02
3.246422e-02
1.042885e-13
-3.246422e-02
-3.246422e-02
3.246422e-02
2.792555e-14
-3.246422e-02
-2.294494e-02
-8.971429e-14
2.294494e-02
-2.294494e-02
-2.294494e-02
-8.638659e-15
2.294494e-02
2.294494e-02
2.294494e-02
-2.294494e-02
-7.893100e-14
2.294494e-02
2.294494e-02
-4.194904e-14
-2.294494e-02
3.246422e-02
-3.246422e-02
-2.294494e-02
-3.246422e-02
3.246422e-02
2.294494e-02
-3.246422e-02
-2.294494e-02
-3.246422e-02
6.361630e-14
1.007269e-13
2.294494e-02
-3.246422e-02