# vtk DataFile Version 3.0
Unstructured Grid Example
ASCII
DATASET UNSTRUCTURED_GRID
POINTS 1641 float
-9.500000e-01	 0	 0
-9.500000e-01	 0	 3.750000e-01
-9.500000e-01	 0	 1.125000e+00
-9.500000e-01	 0	 1.500000e+00
-9.500000e-01	 0	 1.875000e+00
-9.500000e-01	 0	 2.250000e+00
-9.500000e-01	 0	 2.625000e+00
-9.500000e-01	 0	 3
-9.500000e-01	 0	 7.500000e-01
-9.341401e-01	 -1.728649e-01	 1.500000e+00
-9.341401e-01	 -1.728649e-01	 0
-9.341401e-01	 -1.728649e-01	 3.000000e+00
-9.341401e-01	 1.728649e-01	 2.250000e+00
-9.341401e-01	 1.728649e-01	 0
-9.341401e-01	 1.728649e-01	 1.500000e+00
-9.341401e-01	 1.728649e-01	 3.000000e+00
-9.341401e-01	 -1.728649e-01	 7.500000e-01
-9.341401e-01	 -1.728649e-01	 2.250000e+00
-9.341401e-01	 1.728649e-01	 7.500000e-01
-8.832989e-01	 -3.496900e-01	 1.125000e+00
-8.832989e-01	 -3.496900e-01	 1.875000e+00
-8.832989e-01	 -3.496900e-01	 2.625000e+00
-8.832989e-01	 -3.496900e-01	 2.250000e+00
-8.832989e-01	 3.496900e-01	 1.125000e+00
-8.832989e-01	 -3.496900e-01	 0
-8.832989e-01	 -3.496900e-01	 3.000000e+00
-8.832989e-01	 -3.496900e-01	 3.750000e-01
-8.832989e-01	 -3.496900e-01	 7.500000e-01
-8.832989e-01	 3.496900e-01	 3.750000e-01
-8.832989e-01	 3.496900e-01	 7.500000e-01
-8.832989e-01	 3.496900e-01	 2.250000e+00
-8.832989e-01	 3.496900e-01	 2.625000e+00
-8.832989e-01	 3.496900e-01	 0
-8.832989e-01	 3.496900e-01	 1.875000e+00
-8.832989e-01	 3.496900e-01	 3.000000e+00
-8.832989e-01	 -3.496900e-01	 1.500000e+00
-8.832989e-01	 3.496900e-01	 1.500000e+00
-8.787500e-01	 0	 2.250000e+00
-8.787500e-01	 0	 0
-8.787500e-01	 0	 1.500000e+00
-8.787500e-01	 0	 3
-8.787500e-01	 0	 7.500000e-01
-8.149622e-01	 -3.223238e-01	 7.500000e-01
-8.149622e-01	 3.223238e-01	 7.500000e-01
-8.149622e-01	 -3.223238e-01	 2.250000e+00
-8.149622e-01	 3.223238e-01	 2.250000e+00
-8.149622e-01	 -3.223238e-01	 0
-8.149622e-01	 -3.223238e-01	 1.500000e+00
-8.149622e-01	 -3.223238e-01	 3
-8.149622e-01	 3.223238e-01	 1.500000e+00
-8.149622e-01	 3.223238e-01	 0
-8.149622e-01	 3.223238e-01	 3
-8.075000e-01	 0	 7.500000e-01
-8.075000e-01	 0	 2.250000e+00
-8.075000e-01	 0	 3.750000e-01
-8.075000e-01	 0	 1.875000e+00
-8.075000e-01	 0	 2.625000e+00
-8.075000e-01	 0	 0
-8.075000e-01	 0	 1.125000e+00
-8.075000e-01	 0	 1.500000e+00
-8.075000e-01	 0	 3
-7.951457e-01	 -5.198493e-01	 7.500000e-01
-7.951457e-01	 5.198493e-01	 7.500000e-01
-7.951457e-01	 -5.198493e-01	 0
-7.951457e-01	 -5.198493e-01	 1.500000e+00
-7.951457e-01	 -5.198493e-01	 2.250000e+00
-7.951457e-01	 -5.198493e-01	 3
-7.951457e-01	 5.198493e-01	 0
-7.951457e-01	 5.198493e-01	 1.500000e+00
-7.951457e-01	 5.198493e-01	 2.250000e+00
-7.951457e-01	 5.198493e-01	 3
-7.894916e-01	 -1.451644e-01	 7.500000e-01
-7.894916e-01	 1.451644e-01	 7.500000e-01
-7.894916e-01	 1.451644e-01	 0
-7.894916e-01	 1.451644e-01	 3
-7.894916e-01	 -1.451644e-01	 0
-7.894916e-01	 -1.451644e-01	 1.500000e+00
-7.894916e-01	 -1.451644e-01	 2.250000e+00
-7.894916e-01	 -1.451644e-01	 3
-7.894916e-01	 1.451644e-01	 1.500000e+00
-7.894916e-01	 1.451644e-01	 2.250000e+00
-7.430021e-01	 -2.929055e-01	 1.500000e+00
-7.430021e-01	 2.929055e-01	 1.500000e+00
-7.430021e-01	 -2.929055e-01	 2.250000e+00
-7.430021e-01	 -2.929055e-01	 0
-7.430021e-01	 -2.929055e-01	 3.000000e+00
-7.430021e-01	 2.929055e-01	 3.750000e-01
-7.430021e-01	 -2.929055e-01	 3.750000e-01
-7.430021e-01	 -2.929055e-01	 1.125000e+00
-7.430021e-01	 -2.929055e-01	 1.875000e+00
-7.430021e-01	 -2.929055e-01	 2.625000e+00
-7.430021e-01	 2.929055e-01	 1.125000e+00
-7.430021e-01	 2.929055e-01	 0
-7.430021e-01	 2.929055e-01	 1.875000e+00
-7.430021e-01	 2.929055e-01	 2.250000e+00
-7.430021e-01	 2.929055e-01	 2.625000e+00
-7.430021e-01	 2.929055e-01	 3.000000e+00
-7.430021e-01	 2.929055e-01	 7.500000e-01
-7.430021e-01	 -2.929055e-01	 7.500000e-01
-7.362500e-01	 0	 0
-7.362500e-01	 0	 7.500000e-01
-7.362500e-01	 0	 1.500000e+00
-7.362500e-01	 0	 2.250000e+00
-7.362500e-01	 0	 3
-6.717514e-01	 -6.717514e-01	 2.625000e+00
-6.717514e-01	 6.717514e-01	 2.625000e+00
-6.717514e-01	 -6.717514e-01	 0
-6.717514e-01	 -6.717514e-01	 3.750000e-01
-6.717514e-01	 -6.717514e-01	 7.500000e-01
-6.717514e-01	 -6.717514e-01	 1.125000e+00
-6.717514e-01	 -6.717514e-01	 1.875000e+00
-6.717514e-01	 -6.717514e-01	 3.000000e+00
-6.717514e-01	 -6.717514e-01	 2.250000e+00
-6.717514e-01	 6.717514e-01	 1.500000e+00
-6.717514e-01	 6.717514e-01	 0
-6.717514e-01	 6.717514e-01	 3.750000e-01
-6.717514e-01	 6.717514e-01	 7.500000e-01
-6.717514e-01	 6.717514e-01	 1.125000e+00
-6.717514e-01	 6.717514e-01	 1.875000e+00
-6.717514e-01	 6.717514e-01	 3.000000e+00
-6.717514e-01	 -6.717514e-01	 1.500000e+00
-6.717514e-01	 6.717514e-01	 2.250000e+00
-6.682985e-01	 -2.618048e-01	 0
-6.682985e-01	 -2.618048e-01	 1.500000e+00
-6.682985e-01	 -2.618048e-01	 3
-6.682985e-01	 -2.618048e-01	 7.500000e-01
-6.682985e-01	 -2.618048e-01	 2.250000e+00
-6.682985e-01	 2.618048e-01	 7.500000e-01
-6.682985e-01	 2.618048e-01	 2.250000e+00
-6.682985e-01	 2.618048e-01	 0
-6.682985e-01	 2.618048e-01	 1.500000e+00
-6.682985e-01	 2.618048e-01	 3
-6.665713e-01	 -4.348738e-01	 2.250000e+00
-6.665713e-01	 -4.348738e-01	 7.500000e-01
-6.665713e-01	 4.348738e-01	 7.500000e-01
-6.665713e-01	 4.348738e-01	 2.250000e+00
-6.665713e-01	 -4.348738e-01	 0
-6.665713e-01	 -4.348738e-01	 3
-6.665713e-01	 4.348738e-01	 0
-6.665713e-01	 4.348738e-01	 1.500000e+00
-6.665713e-01	 4.348738e-01	 3
-6.665713e-01	 -4.348738e-01	 1.500000e+00
-6.650000e-01	 0	 7.500000e-01
-6.650000e-01	 0	 0
-6.650000e-01	 0	 3.750000e-01
-6.650000e-01	 0	 1.125000e+00
-6.650000e-01	 0	 1.500000e+00
-6.650000e-01	 0	 1.875000e+00
-6.650000e-01	 0	 2.625000e+00
-6.650000e-01	 0	 3
-6.650000e-01	 0	 2.250000e+00
-6.383743e-01	 -1.144482e-01	 0
-6.383743e-01	 -1.144482e-01	 3.000000e+00
-6.383743e-01	 -1.144482e-01	 7.500000e-01
-6.383743e-01	 -1.144482e-01	 1.500000e+00
-6.383743e-01	 -1.144482e-01	 2.250000e+00
-6.383743e-01	 1.144482e-01	 7.500000e-01
-6.383743e-01	 1.144482e-01	 1.500000e+00
-6.383743e-01	 1.144482e-01	 0
-6.383743e-01	 1.144482e-01	 2.250000e+00
-6.383743e-01	 1.144482e-01	 3.000000e+00
-6.189903e-01	 -6.189903e-01	 0
-6.189903e-01	 -6.189903e-01	 1.500000e+00
-6.189903e-01	 -6.189903e-01	 3.000000e+00
-6.189903e-01	 6.189903e-01	 2.250000e+00
-6.189903e-01	 6.189903e-01	 0
-6.189903e-01	 6.189903e-01	 1.500000e+00
-6.189903e-01	 6.189903e-01	 3.000000e+00
-6.189903e-01	 -6.189903e-01	 2.250000e+00
-6.189903e-01	 -6.189903e-01	 7.500000e-01
-6.189903e-01	 6.189903e-01	 7.500000e-01
-5.937500e-01	 0	 0
-5.937500e-01	 0	 7.500000e-01
-5.937500e-01	 0	 1.500000e+00
-5.937500e-01	 0	 2.250000e+00
-5.937500e-01	 0	 3
-5.917666e-01	 2.294176e-01	 1.875000e+00
-5.917666e-01	 2.294176e-01	 2.250000e+00
-5.917666e-01	 -2.294176e-01	 2.250000e+00
-5.917666e-01	 -2.294176e-01	 0
-5.917666e-01	 -2.294176e-01	 2.625000e+00
-5.917666e-01	 -2.294176e-01	 3
-5.917666e-01	 -2.294176e-01	 1.500000e+00
-5.917666e-01	 -2.294176e-01	 1.875000e+00
-5.917666e-01	 2.294176e-01	 0
-5.917666e-01	 2.294176e-01	 2.625000e+00
-5.917666e-01	 2.294176e-01	 3
-5.917666e-01	 2.294176e-01	 1.500000e+00
-5.917666e-01	 -2.294176e-01	 3.750000e-01
-5.917666e-01	 -2.294176e-01	 7.500000e-01
-5.917666e-01	 -2.294176e-01	 1.125000e+00
-5.917666e-01	 2.294176e-01	 7.500000e-01
-5.917666e-01	 2.294176e-01	 1.125000e+00
-5.917666e-01	 2.294176e-01	 3.750000e-01
-5.620800e-01	 5.620800e-01	 1.125000e+00
-5.620800e-01	 -5.620800e-01	 1.125000e+00
-5.620800e-01	 -5.620800e-01	 3.750000e-01
-5.620800e-01	 -5.620800e-01	 7.500000e-01
-5.620800e-01	 -5.620800e-01	 1.875000e+00
-5.620800e-01	 -5.620800e-01	 2.625000e+00
-5.620800e-01	 5.620800e-01	 3.750000e-01
-5.620800e-01	 5.620800e-01	 7.500000e-01
-5.620800e-01	 5.620800e-01	 1.875000e+00
-5.620800e-01	 -5.620800e-01	 0
-5.620800e-01	 -5.620800e-01	 1.500000e+00
-5.620800e-01	 -5.620800e-01	 2.250000e+00
-5.620800e-01	 -5.620800e-01	 3
-5.620800e-01	 5.620800e-01	 0
-5.620800e-01	 5.620800e-01	 1.500000e+00
-5.620800e-01	 5.620800e-01	 2.250000e+00
-5.620800e-01	 5.620800e-01	 3
-5.620800e-01	 5.620800e-01	 2.625000e+00
-5.250231e-01	 -3.396892e-01	 7.500000e-01
-5.250231e-01	 3.396892e-01	 1.500000e+00
-5.250231e-01	 3.396892e-01	 2.250000e+00
-5.250231e-01	 3.396892e-01	 7.500000e-01
-5.250231e-01	 -3.396892e-01	 2.250000e+00
-5.250231e-01	 -3.396892e-01	 0
-5.250231e-01	 -3.396892e-01	 1.500000e+00
-5.250231e-01	 -3.396892e-01	 3.000000e+00
-5.250231e-01	 3.396892e-01	 0
-5.250231e-01	 3.396892e-01	 3.000000e+00
-5.225000e-01	 0	 1.500000e+00
-5.225000e-01	 0	 2.250000e+00
-5.225000e-01	 0	 0
-5.225000e-01	 0	 3.750000e-01
-5.225000e-01	 0	 7.500000e-01
-5.225000e-01	 0	 1.125000e+00
-5.225000e-01	 0	 1.875000e+00
-5.225000e-01	 0	 2.625000e+00
-5.225000e-01	 0	 3
-5.198493e-01	 7.951457e-01	 7.500000e-01
-5.198493e-01	 -7.951457e-01	 7.500000e-01
-5.198493e-01	 -7.951457e-01	 0
-5.198493e-01	 -7.951457e-01	 1.500000e+00
-5.198493e-01	 -7.951457e-01	 2.250000e+00
-5.198493e-01	 -7.951457e-01	 3
-5.198493e-01	 7.951457e-01	 0
-5.198493e-01	 7.951457e-01	 1.500000e+00
-5.198493e-01	 7.951457e-01	 2.250000e+00
-5.198493e-01	 7.951457e-01	 3
-5.143216e-01	 -1.961513e-01	 2.250000e+00
-5.143216e-01	 1.961513e-01	 7.500000e-01
-5.143216e-01	 1.961513e-01	 1.500000e+00
-5.143216e-01	 -1.961513e-01	 7.500000e-01
-5.143216e-01	 -1.961513e-01	 0
-5.143216e-01	 -1.961513e-01	 3.000000e+00
-5.143216e-01	 -1.961513e-01	 1.500000e+00
-5.143216e-01	 1.961513e-01	 2.250000e+00
-5.143216e-01	 1.961513e-01	 0
-5.143216e-01	 1.961513e-01	 3.000000e+00
-5.020120e-01	 -5.020120e-01	 7.500000e-01
-5.020120e-01	 -5.020120e-01	 1.500000e+00
-5.020120e-01	 5.020120e-01	 7.500000e-01
-5.020120e-01	 5.020120e-01	 1.500000e+00
-5.020120e-01	 -5.020120e-01	 0
-5.020120e-01	 -5.020120e-01	 2.250000e+00
-5.020120e-01	 -5.020120e-01	 3.000000e+00
-5.020120e-01	 5.020120e-01	 0
-5.020120e-01	 5.020120e-01	 2.250000e+00
-5.020120e-01	 5.020120e-01	 3.000000e+00
-4.847636e-01	 8.158725e-02	 7.500000e-01
-4.847636e-01	 -8.158725e-02	 7.500000e-01
[...]
POINT_DATA 1641
SCALARS pres_adim float 1
LOOKUP_TABLE default
-6.373615e-02
-5.914102e-02
-2.449701e-02
-2.938598e-15
2.449701e-02
4.506827e-02
5.914102e-02
6.373615e-02
-4.506827e-02
-1.819814e-14
-5.980105e-02
5.980105e-02
4.228573e-02
-5.980105e-02
1.311999e-14
5.980105e-02
-4.228573e-02
4.228573e-02
-4.228573e-02
-1.784379e-02
1.784379e-02
4.307872e-02
3.281644e-02
-1.784379e-02
-4.640945e-02
4.640945e-02
-4.307872e-02
-3.281644e-02
-4.307872e-02
-3.281644e-02
3.281644e-02
4.307872e-02
-4.640945e-02
1.784379e-02
4.640945e-02
-2.963597e-14
3.094227e-14
4.447608e-02
-6.289867e-02
-3.077093e-15
6.289867e-02
-4.447608e-02
-3.239004e-02
-3.239004e-02
3.239004e-02
3.239004e-02
-4.580644e-02
-2.898852e-14
4.580644e-02
3.108003e-14
-4.580644e-02
4.580644e-02
-4.246789e-02
4.246789e-02
-5.573224e-02
2.308505e-02
5.573224e-02
-6.005866e-02
-2.308505e-02
-2.493273e-15
6.005866e-02
-1.818430e-02
-1.818430e-02
-2.571648e-02
-3.741653e-14
1.818430e-02
2.571648e-02
-2.571648e-02
4.797376e-14
1.818430e-02
2.571648e-02
-3.971780e-02
-3.971780e-02
-5.616945e-02
5.616945e-02
-5.616945e-02
-1.665309e-14
3.971780e-02
5.616945e-02
1.280351e-14
3.971780e-02
-2.740391e-14
2.933029e-14
3.079300e-02
-4.354788e-02
4.354788e-02
-4.042111e-02
-4.042111e-02
-1.674297e-02
1.674297e-02
4.042111e-02
-1.674297e-02
-4.354788e-02
1.674297e-02
3.079300e-02
4.042111e-02
4.354788e-02
-3.079300e-02
-3.079300e-02
-5.583923e-02
-3.948430e-02
-2.603534e-15
3.948430e-02
5.583923e-02
-2.413208e-12
2.380226e-12
2.624636e-12
2.422131e-12
1.806267e-12
9.478665e-13
-1.010995e-12
-2.605541e-12
-1.835910e-12
5.747768e-14
-2.613897e-12
-2.420805e-12
-1.826274e-12
-9.597153e-13
1.044330e-12
2.548935e-12
-3.584232e-14
1.845472e-12
-3.999592e-02
-2.362269e-14
3.999592e-02
-2.828138e-02
2.828138e-02
-2.828138e-02
2.828138e-02
-3.999592e-02
2.768279e-14
3.999592e-02
1.703417e-02
-1.703417e-02
-1.703417e-02
1.703417e-02
-2.408996e-02
2.408996e-02
-2.408996e-02
4.499936e-14
2.408996e-02
-3.367864e-14
-3.544304e-02
-5.012403e-02
-4.649183e-02
-1.925755e-02
-1.046275e-15
1.925755e-02
4.649183e-02
5.012403e-02
3.544304e-02
-4.583531e-02
4.583531e-02
-3.241046e-02
-1.164170e-14
3.241046e-02
-3.241046e-02
1.166994e-14
-4.583531e-02
3.241046e-02
4.583531e-02
2.588059e-12
-3.546256e-14
-2.568524e-12
1.819117e-12
-2.576789e-12
5.653938e-14
2.512500e-12
-1.809392e-12
1.780542e-12
-1.800342e-12
-4.357185e-02
-3.080995e-02
-2.353697e-16
3.080995e-02
4.357185e-02
1.344930e-02
2.475098e-02
2.475098e-02
-3.500317e-02
3.246948e-02
3.500317e-02
-1.914546e-14
1.344930e-02
-3.500317e-02
3.246948e-02
3.500317e-02
2.441541e-14
-3.246948e-02
-2.475098e-02
-1.344930e-02
-2.475098e-02
-1.344930e-02
-3.246948e-02
-8.952006e-13
8.824317e-13
2.257520e-12
1.683124e-12
-9.405294e-13
-2.249833e-12
-2.256995e-12
-1.702298e-12
9.754300e-13
2.446638e-12
-3.310982e-14
-1.710106e-12
-2.429529e-12
-2.436083e-12
5.377222e-14
1.720805e-12
2.374959e-12
2.218199e-12
-1.355424e-02
3.609487e-14
1.355424e-02
-1.355424e-02
1.355424e-02
-1.916859e-02
-2.501150e-14
1.916859e-02
-1.916859e-02
1.916859e-02
1.138873e-15
2.568893e-02
-3.632963e-02
-3.363860e-02
-2.568893e-02
-1.393356e-02
1.393356e-02
3.363860e-02
3.632963e-02
1.818430e-02
1.818430e-02
2.571648e-02
-2.852631e-14
-1.818430e-02
-2.571648e-02
2.571648e-02
5.989423e-14
-1.818430e-02
-2.571648e-02
2.068146e-02
-2.068146e-02
2.139851e-14
-2.068146e-02
-2.924801e-02
2.924801e-02
-1.429210e-14
2.068146e-02
-2.924801e-02
2.924801e-02
1.526600e-12
-2.963644e-14
-1.546023e-12
4.918585e-14
2.221937e-12
-1.551617e-12
-2.206882e-12
-2.211909e-12
1.563421e-12
2.156020e-12
-2.215324e-02
-2.215324e-02
-3.132941e-02
-4.830725e-15
3.132941e-02
2.215324e-02
-3.132941e-02
9.832166e-15
2.215324e-02
3.132941e-02
2.028180e-15
2.039402e-02
-2.884149e-02
-2.039402e-02
2.884149e-02
6.844629e-13
-6.966268e-13
1.904628e-12
-1.750514e-12
-1.892534e-12
1.755253e-12
-2.513548e-14
7.621070e-13
-1.895933e-12
1.724795e-12
1.847791e-12
-7.282098e-13
-1.328425e-12
1.340921e-12
-1.757352e-12
4.289818e-14
-1.326062e-12
1.306996e-12
-8.829152e-03
-9.529547e-15
-2.131546e-02
2.131546e-02
1.821459e-14
-8.829152e-03
1.627665e-02
2.131546e-02
-2.131546e-02
-1.627665e-02
-2.301867e-02
-1.627665e-02
1.627665e-02
2.301867e-02
8.829152e-03
8.829152e-03
-2.301867e-02
2.301867e-02
-1.703417e-02
-1.703417e-02
2.408996e-02
-2.408996e-02
1.703417e-02
2.408996e-02
-2.649200e-14
-2.408996e-02
5.623710e-14
1.703417e-02
-2.163027e-02
-1.997129e-02
-1.529491e-02
-8.272380e-03
2.607056e-15
8.272380e-03
1.529491e-02
1.997129e-02
2.163027e-02
-8.659316e-03
8.659316e-03
-1.224612e-02
1.224612e-02
-1.360175e-14
-1.224612e-02
2.485990e-14
8.659316e-03
1.224612e-02
-8.659316e-03
-1.071383e-12
1.540209e-12
1.054912e-12
-2.008522e-14
-1.530083e-12
-1.534200e-12
-1.073386e-12
3.606333e-14
1.493263e-12
1.085712e-12
1.191896e-02
-1.685595e-02
1.685595e-02
-1.685595e-02
1.685595e-02
1.191896e-02
-1.191896e-02
-1.191896e-02
1.520528e-14
-6.251497e-15
1.784379e-02
4.640945e-02
-1.784379e-02
-4.640945e-02
-1.461410e-14
4.640945e-02
-4.640945e-02
1.784379e-02
-1.784379e-02
-4.307872e-02
4.307872e-02
3.281644e-02
-3.281644e-02
-4.307872e-02
5.404703e-14
4.307872e-02
-3.281644e-02
3.281644e-02
1.355424e-02
-2.193948e-14
-1.355424e-02
-1.355424e-02
1.355424e-02
1.916859e-02
-1.916859e-02
1.916859e-02
4.539195e-14
-1.916859e-02
-1.178907e-02
-1.688762e-16
-1.667227e-02
1.178907e-02
1.667227e-02
-1.667227e-02
7.712770e-15
1.178907e-02
1.667227e-02
-1.178907e-02
3.239004e-02
-3.239004e-02
3.239004e-02
-3.239004e-02
4.580644e-02
-4.580644e-02
4.580644e-02
5.414656e-14
-4.580644e-02
-1.527445e-14
7.889809e-13
-8.065059e-13
-4.221988e-13
4.116569e-13
1.153955e-12
1.061193e-12
-1.506241e-14
-4.364585e-13
-1.058510e-12
-1.146786e-12
-1.151800e-12
-1.066086e-12
2.886211e-14
4.658984e-13
1.044178e-12
1.119100e-12
-7.994057e-13
8.165307e-13
-1.471044e-14
4.042111e-02
4.042111e-02
-3.079300e-02
5.150460e-14
4.354788e-02
-1.674297e-02
-3.079300e-02
-4.042111e-02
-4.354788e-02
1.674297e-02
-1.674297e-02
4.354788e-02
-4.354788e-02
1.674297e-02
3.079300e-02
3.079300e-02
-4.042111e-02
-1.046474e-02
-1.133616e-02
-4.334638e-03
-2.142175e-15
4.334638e-03
8.015879e-03
1.046474e-02
1.133616e-02
-1.133616e-02
-8.015879e-03
8.015879e-03
1.046474e-02
1.133616e-02
-4.334638e-03
1.161210e-14
-8.015879e-03
-1.046474e-02
4.334638e-03
3.999592e-02
-1.459986e-14
-3.999592e-02
3.999592e-02
4.799755e-14
-3.999592e-02
2.828138e-02
-2.828138e-02
2.828138e-02
-2.828138e-02
7.850138e-13
5.343423e-13
-9.526371e-15
-7.796042e-13
-7.857748e-13
-5.503173e-13
2.266466e-14
7.625755e-13
-5.394456e-13
5.588971e-13
8.659316e-03
8.659316e-03
-8.659316e-03
1.224612e-02
-1.378391e-14
-8.659316e-03
-1.224612e-02
1.224612e-02
-1.224612e-02
3.032088e-14
8.818925e-15
1.698782e-15
-3.592196e-15
-8.744278e-03
8.744278e-03
1.533856e-14
-5.725973e-03
4.048874e-03
5.725973e-03
-4.048874e-03
6.183138e-03
-6.183138e-03
-8.744278e-03
-6.183138e-03
8.744278e-03
6.183138e-03
-4.048874e-03
-5.725973e-03
4.048874e-03
5.725973e-03
-2.475098e-02
-2.475098e-02
-1.301535e-14
3.246948e-02
3.246948e-02
3.500317e-02
-3.246948e-02
-3.500317e-02
2.475098e-02
3.500317e-02
-3.246948e-02
-3.500317e-02
-1.344930e-02
2.475098e-02
1.344930e-02
1.344930e-02
4.231760e-14
-1.344930e-02
2.068146e-02
-1.043571e-14
2.924801e-02
-2.924801e-02
2.924801e-02
-2.924801e-02
2.068146e-02
-2.068146e-02
3.590585e-14
-2.068146e-02
3.200570e-13
-3.333553e-13
4.308316e-13
6.371035e-15
-4.193590e-03
-4.416776e-13
4.716093e-13
1.647623e-13
-4.380219e-15
-1.713013e-13
-3.200359e-13
-4.280256e-13
-4.685920e-13
5.480291e-03
-5.480291e-03
-5.930632e-03
2.270011e-03
5.930632e-03
4.193590e-03
-4.794593e-13
-1.725750e-13
1.750284e-14
1.985142e-13
3.418978e-13
4.311660e-13
4.624395e-13
-2.270011e-03
4.380042e-14
5.980105e-02
-7.527988e-17
-5.980105e-02
5.980105e-02
-5.980105e-02
-4.228573e-02
4.228573e-02
4.228573e-02
-4.228573e-02
8.829152e-03
8.829152e-03
-8.223080e-15
-8.829152e-03
-8.829152e-03
-1.627665e-02
2.886500e-14
-2.131546e-02
2.301867e-02
1.627665e-02
-1.627665e-02
-2.301867e-02
2.301867e-02
-2.301867e-02
-2.131546e-02
2.131546e-02
2.131546e-02
1.627665e-02
3.971780e-02
5.616945e-02
-5.616945e-02
3.971780e-02
-1.666828e-15
-3.971780e-02
5.616945e-02
4.213515e-14
-3.971780e-02
-5.616945e-02
1.808650e-13
-1.931826e-13
1.365030e-14
-4.685288e-15
5.725973e-03
-4.048874e-03
-5.725973e-03
-1.777718e-13
2.683586e-13
-3.416650e-16
-2.663659e-13
-3.004592e-03
4.624784e-15
2.124567e-03
3.004592e-03
-2.124567e-03
-2.124567e-03
-3.004592e-03
3.004592e-03
2.124567e-03
-2.798911e-13
2.020404e-13
2.683607e-13
5.725973e-03
-4.048874e-03
-5.725973e-03
1.816330e-14
4.048874e-03
9.203976e-15
4.048874e-03
-1.191896e-02
-6.368283e-15
1.685595e-02
-1.685595e-02
1.191896e-02
2.277861e-14
1.191896e-02
1.685595e-02
-1.685595e-02
-1.191896e-02
4.583531e-02
-3.241046e-02
-4.583531e-02
4.583531e-02
-4.583531e-02
3.574479e-14
-3.241046e-02
3.241046e-02
3.241046e-02
-1.716364e-15
1.099994e-14
4.334638e-03
-3.045419e-15
1.058746e-13
-1.031603e-13
-7.243444e-14
-1.222877e-13
1.046474e-02
1.133616e-02
8.015879e-03
-8.015879e-03
-1.046474e-02
-1.133616e-02
-4.334638e-03
1.158404e-13
-1.156426e-13
7.870017e-14
4.145383e-14
2.740458e-15
-1.331329e-13
-8.949169e-14
6.156737e-14
9.864002e-14
1.198712e-13
1.259551e-13
8.015879e-03
1.133616e-02
4.334638e-03
1.801050e-14
-4.334638e-03
-8.015879e-03
-1.046474e-02
-1.133616e-02
1.046474e-02
-3.471402e-14
-4.369726e-14
2.215324e-02
2.215324e-02
3.132941e-02
-1.619696e-15
-2.215324e-02
-3.132941e-02
3.132941e-02
2.574798e-14
-3.132941e-02
-2.215324e-02
1.178907e-02
-6.183138e-03
-2.357698e-14
6.183138e-03
1.626992e-14
1.667227e-02
-1.030480e-15
-1.178907e-02
-1.667227e-02
3.873080e-16
8.744278e-03
-8.744278e-03
6.183138e-03
-2.124567e-03
2.059351e-14
1.598338e-14
-2.083050e-14
6.423506e-15
-6.190927e-15
-3.977483e-14
8.986391e-15
3.432359e-14
3.696583e-14
3.004592e-03
-3.004592e-03
1.116638e-14
-2.124567e-03
-6.183138e-03
8.744278e-03
-8.744278e-03
1.381562e-14
1.667227e-02
-1.178907e-02
-1.667227e-02
1.178907e-02
3.004592e-03
3.246183e-15
-3.004592e-03
2.124567e-03
2.124567e-03
-5.480291e-03
5.480291e-03
-2.270011e-03
2.270011e-03
4.193590e-03
-4.193590e-03
6.373615e-02
5.914102e-02
2.449701e-02
1.369444e-14
-2.449701e-02
-4.506827e-02
-5.914102e-02
-6.373615e-02
4.506827e-02
-4.447608e-02
6.289867e-02
1.312210e-14
-6.289867e-02
4.447608e-02
4.246789e-02
-4.246789e-02
5.573224e-02
-2.308505e-02
-5.573224e-02
6.005866e-02
2.308505e-02
1.167134e-14
-6.005866e-02
5.583923e-02
3.948430e-02
1.086006e-14
-3.948430e-02
-5.583923e-02
3.544304e-02
5.012403e-02
4.649183e-02
1.925755e-02
9.227802e-15
-1.925755e-02
-4.649183e-02
-5.012403e-02
-3.544304e-02
4.357185e-02
3.080995e-02
8.610334e-15
-3.080995e-02
-4.357185e-02
6.332019e-15
-2.568893e-02
3.632963e-02
3.363860e-02
2.568893e-02
1.393356e-02
-1.393356e-02
-3.363860e-02
-3.632963e-02
4.848491e-15
-2.039402e-02
2.884149e-02
2.039402e-02
-2.884149e-02
2.163027e-02
1.997129e-02
1.529491e-02
8.272380e-03
2.939288e-15
-8.272380e-03
-1.529491e-02
-1.997129e-02
-2.163027e-02
-1.165070e-14
1.142760e-14
2.966992e-15
1.289165e-14
7.883884e-15
-1.409395e-15
1.452583e-14
-9.446449e-15
1.318448e-14
5.930632e-03
-4.193590e-03
-5.930632e-03
4.193590e-03
1.108835e-14
2.163027e-02
1.997129e-02
1.529491e-02
8.272380e-03
1.524244e-14
-8.272380e-03
-1.529491e-02
-1.997129e-02
-2.163027e-02
2.884149e-02
2.039402e-02
-2.884149e-02
-2.039402e-02
1.813286e-14
3.632963e-02
3.363860e-02
2.568893e-02
1.393356e-02
-1.393356e-02
-3.363860e-02
-3.632963e-02
2.130638e-14
-2.568893e-02
4.357185e-02
3.080995e-02
2.333201e-14
-3.080995e-02
-4.357185e-02
-3.544304e-02
5.012403e-02
4.649183e-02
1.925755e-02
2.494975e-14
-1.925755e-02
-4.649183e-02
-5.012403e-02
3.544304e-02
5.583923e-02
3.948430e-02
2.682974e-14
-3.948430e-02
-5.583923e-02
6.005866e-02
2.308505e-02
2.791490e-14
-6.005866e-02
5.573224e-02
-2.308505e-02
-5.573224e-02
4.246789e-02
-4.246789e-02
4.447608e-02
6.289867e-02
2.873845e-14
-6.289867e-02
-4.447608e-02
4.506827e-02
6.373615e-02
5.914102e-02
2.449701e-02
2.952022e-14
-2.449701e-02
-4.506827e-02
-5.914102e-02
-6.373615e-02
5.480291e-03
5.930632e-03
-5.930632e-03
4.080213e-15
-5.480291e-03
2.270011e-03
-2.270011e-03
2.124567e-03
7.508833e-15
3.004592e-03
2.124567e-03
7.969952e-15
-3.004592e-03
3.004592e-03
7.305145e-15
-3.004592e-03
8.405944e-15
1.178907e-02
1.667227e-02
5.697906e-15
-1.178907e-02
-1.667227e-02
8.744278e-03
-8.744278e-03
-4.194738e-14
-2.270635e-14
3.492946e-14
4.224701e-14
1.524077e-14
-8.124135e-15
-1.661784e-14
2.151962e-14
-2.124567e-03
6.183138e-03
-6.183138e-03
8.744278e-03
-8.744278e-03
1.667227e-02
1.080760e-14
-1.178907e-02
-1.667227e-02
1.178907e-02
-6.183138e-03
6.183138e-03
-2.124567e-03
1.007072e-14
5.994305e-15
-2.215324e-02
3.132941e-02
1.219789e-14
-3.132941e-02
3.132941e-02
1.164105e-14
-2.215324e-02
-3.132941e-02
2.215324e-02
2.215324e-02
1.046474e-02
5.948131e-14
-7.687293e-14
7.065144e-15
1.046474e-02
1.133616e-02
8.015879e-03
4.334638e-03
9.406883e-15
-4.334638e-03
-8.015879e-03
-1.046474e-02
-1.133616e-02
-8.728242e-14
-1.373773e-13
-4.173196e-14
8.617724e-15
1.007997e-13
1.274597e-13
1.355911e-13
1.062671e-13
8.842418e-14
-9.946811e-14
-1.069214e-13
1.029776e-13
8.015879e-03
-4.334638e-03
1.133616e-02
4.334638e-03
7.077121e-15
-8.015879e-03
-1.046474e-02
-1.133616e-02
-1.234824e-13
5.361359e-14
-3.985167e-14
3.241046e-02
1.182038e-14
3.241046e-02
1.966832e-14
-3.241046e-02
4.583531e-02
-4.583531e-02
4.583531e-02
-3.241046e-02
-4.583531e-02
-1.191896e-02
1.685595e-02
-1.685595e-02
1.191896e-02
1.297471e-14
1.191896e-02
1.685595e-02
-1.685595e-02
4.648164e-15
-1.191896e-02
-2.860860e-13
2.820257e-13
4.048874e-03
2.124567e-03
7.034199e-15
2.124567e-03
4.048874e-03
1.174608e-14
5.725973e-03
-4.048874e-03
-5.725973e-03
-1.912072e-13
1.011960e-14
2.053450e-13
-2.124567e-03
-3.004592e-03
3.004592e-03
-2.124567e-03
2.518568e-13
1.930811e-13
-1.837553e-13
-2.539395e-13
5.636728e-15
5.725973e-03
-4.048874e-03
-5.725973e-03
4.833459e-15
-3.004592e-03
8.676067e-15
3.004592e-03
5.616945e-02
2.489841e-14
-3.971780e-02
-5.616945e-02
1.228975e-14
-3.971780e-02
3.971780e-02
5.616945e-02
-5.616945e-02
3.971780e-02
2.131546e-02
1.627665e-02
2.131546e-02
-2.131546e-02
2.301867e-02
-2.301867e-02
2.301867e-02
1.627665e-02
-1.627665e-02
-2.301867e-02
-2.131546e-02
1.777730e-14
-1.627665e-02
-8.829152e-03
-8.829152e-03
2.642237e-15
8.829152e-03
8.829152e-03
4.228573e-02
-4.228573e-02
4.228573e-02
-4.228573e-02
5.980105e-02
-5.980105e-02
5.980105e-02
1.330724e-14
-5.980105e-02
2.686914e-14
-5.930632e-03
5.480291e-03
5.930632e-03
-4.870582e-13
-1.704654e-13
1.317606e-14
1.955617e-13
3.470653e-13
4.454939e-13
4.794520e-13
-4.193590e-03
-2.270011e-03
2.270011e-03
4.501031e-13
1.859055e-13
2.693676e-15
-1.803095e-13
-3.285689e-13
-4.200238e-13
-4.515537e-13
-4.449094e-13
-5.480291e-03
8.457060e-15
4.193590e-03
4.224378e-13
-3.308789e-13
3.343603e-13
-2.068146e-02
2.249960e-14
-2.068146e-02
2.068146e-02
2.924801e-02
-2.924801e-02
2.924801e-02
-2.924801e-02
6.369421e-17
2.068146e-02
2.755125e-14
-1.344930e-02
1.344930e-02
2.475098e-02
1.344930e-02
-1.344930e-02
3.500317e-02
-3.246948e-02
-3.500317e-02
2.475098e-02
3.500317e-02
-3.246948e-02
-3.500317e-02
3.246948e-02
3.246948e-02
-2.229862e-15
-2.475098e-02
-2.475098e-02
-6.183138e-03
-6.183138e-03
-5.725973e-03
4.048874e-03
5.725973e-03
-4.048874e-03
-4.048874e-03
-5.725973e-03
4.048874e-03
5.725973e-03
1.351298e-14
-8.744278e-03
6.183138e-03
8.744278e-03
-8.744278e-03
8.744278e-03
6.183138e-03
3.109231e-15
9.787022e-15
5.908556e-15
2.205706e-14
1.224612e-02
-1.224612e-02
1.224612e-02
-5.032665e-15
-8.659316e-03
-1.224612e-02
-8.659316e-03
8.659316e-03
8.659316e-03
5.647038e-13
-5.504720e-13
-7.965305e-13
-5.465238e-13
1.856786e-14
7.832408e-13
7.559242e-13
5.511234e-13
-1.741361e-15
-7.561445e-13
2.828138e-02
-2.828138e-02
2.828138e-02
-2.828138e-02
3.999592e-02
3.213113e-14
-3.999592e-02
3.999592e-02
-3.940686e-15
-3.999592e-02
-8.015879e-03
4.334638e-03
-1.046474e-02
-1.046474e-02
-8.015879e-03
4.334638e-03
-4.334638e-03
1.254040e-14
-1.133616e-02
8.015879e-03
1.046474e-02
1.133616e-02
-1.133616e-02
-4.334638e-03
2.765405e-15
8.015879e-03
1.046474e-02
1.133616e-02
-4.042111e-02
3.079300e-02
3.079300e-02
1.674297e-02
4.354788e-02
-4.354788e-02
1.674297e-02
-1.674297e-02
4.354788e-02
-1.674297e-02
-3.079300e-02
-4.042111e-02
-4.354788e-02
3.524763e-14
-3.079300e-02
4.042111e-02
4.042111e-02
-4.672079e-15
8.218889e-13
-8.130171e-13
-1.164324e-12
-1.069877e-12
2.402960e-14
4.592619e-13
1.063542e-12
1.143207e-12
1.120253e-12
1.044989e-12
-7.160054e-15
-4.520641e-13
-1.045599e-12
-1.118517e-12
4.397202e-13
-4.192712e-13
-8.018394e-13
8.078368e-13
-5.589718e-15
4.580644e-02
3.666502e-14
-4.580644e-02
4.580644e-02
-4.580644e-02
-3.239004e-02
3.239004e-02
-3.239004e-02
3.239004e-02
-1.178907e-02
1.089330e-14
-1.667227e-02
1.178907e-02
1.667227e-02
-1.667227e-02
5.541673e-15
1.178907e-02
1.667227e-02
-1.178907e-02
1.916859e-02
3.317712e-14
-1.916859e-02
1.916859e-02
-1.916859e-02
1.355424e-02
-1.355424e-02
-1.336893e-14
-1.355424e-02
1.355424e-02
3.281644e-02
-3.281644e-02
4.307872e-02
3.663458e-14
4.307872e-02
3.281644e-02
-3.281644e-02
-4.307872e-02
1.784379e-02
-1.784379e-02
-4.307872e-02
4.640945e-02
-4.640945e-02
-5.073061e-15
4.640945e-02
-1.784379e-02
-4.640945e-02
1.784379e-02
6.772164e-16
1.574465e-14
-1.191896e-02
-1.191896e-02
1.191896e-02
-1.685595e-02
1.685595e-02
-1.685595e-02
1.685595e-02
1.191896e-02
1.090276e-12
-1.548911e-12
-1.068849e-12
2.968613e-14
1.519975e-12
1.501653e-12
1.075740e-12
-1.308487e-14
-1.498395e-12
-1.087358e-12
-8.659316e-03
-1.224612e-02
2.371059e-14
8.659316e-03
1.224612e-02
-6.853336e-15
-1.224612e-02
1.224612e-02
8.659316e-03
-8.659316e-03
-2.163027e-02
-1.997129e-02
-1.529491e-02
-8.272380e-03
8.031411e-15
8.272380e-03
1.529491e-02
1.997129e-02
2.163027e-02
1.703417e-02
4.201891e-14
2.408996e-02
-1.852357e-14
-2.408996e-02
1.703417e-02
2.408996e-02
-2.408996e-02
-1.703417e-02
-1.703417e-02
-2.301867e-02
2.301867e-02
8.829152e-03
8.829152e-03
-2.301867e-02
-1.627665e-02
1.627665e-02
2.301867e-02
-2.131546e-02
-1.627665e-02
2.131546e-02
1.627665e-02
-8.829152e-03
1.980200e-14
2.131546e-02
-2.131546e-02
-2.859638e-15
-8.829152e-03
1.329411e-12
-1.321103e-12
-1.763023e-12
3.491635e-14
1.344460e-12
-1.346085e-12
-7.508703e-13
-1.913111e-12
1.746776e-12
1.877226e-12
7.507431e-13
1.735596e-12
-1.829663e-14
1.862780e-12
-1.735802e-12
-1.857194e-12
-6.950014e-13
7.188561e-13
-2.884149e-02
-2.039402e-02
2.884149e-02
2.039402e-02
7.751139e-15
-3.132941e-02
1.436960e-14
2.215324e-02
3.132941e-02
2.215324e-02
-3.132941e-02
1.688145e-15
3.132941e-02
-2.215324e-02
-2.215324e-02
-2.230557e-12
1.565431e-12
2.187995e-12
2.177270e-12
-1.571367e-12
-2.168678e-12
-1.539765e-12
3.983500e-14
1.550287e-12
-2.195037e-14
-2.924801e-02
2.924801e-02
2.068146e-02
-7.921808e-15
-2.924801e-02
2.924801e-02
-2.068146e-02
2.320012e-14
-2.068146e-02
2.068146e-02
2.571648e-02
4.470723e-14
-1.818430e-02
-2.571648e-02
2.571648e-02
-2.067109e-14
-1.818430e-02
-2.571648e-02
1.818430e-02
1.818430e-02
-3.632963e-02
-3.363860e-02
-2.568893e-02
-1.393356e-02
1.393356e-02
3.363860e-02
3.632963e-02
7.848848e-15
2.568893e-02
-1.916859e-02
1.916859e-02
-1.916859e-02
-1.783243e-14
1.916859e-02
1.355424e-02
-1.355424e-02
3.277312e-14
1.355424e-02
-1.355424e-02
2.241430e-12
-2.455900e-12
4.336739e-14
1.722059e-12
2.409589e-12
2.399534e-12
-2.491356e-14
-1.731761e-12
-2.391024e-12
-2.264132e-12
-1.694756e-12
9.622699e-13
-2.234093e-12
2.235143e-12
1.707691e-12
-9.669841e-13
9.217769e-13
-8.921913e-13
-3.246948e-02
-2.475098e-02
-1.344930e-02
-1.344930e-02
-2.475098e-02
-3.246948e-02
2.642322e-14
-3.500317e-02
3.246948e-02
3.500317e-02
-1.245031e-14
1.344930e-02
-3.500317e-02
3.246948e-02
3.500317e-02
2.475098e-02
2.475098e-02
1.344930e-02
-4.357185e-02
-3.080995e-02
6.994844e-15
3.080995e-02
4.357185e-02
-1.792192e-12
1.806023e-12
-1.831685e-12
-2.596854e-12
4.609289e-14
2.548915e-12
1.820346e-12
2.539326e-12
-2.678768e-14