# vtk DataFile Version 3.0
Unstructured Grid Example
ASCII
DATASET UNSTRUCTURED_GRID
POINTS 576 float
-6.527021e-01	 6.902753e-01	 1.446750e+00
-6.527021e-01	 6.902753e-01	 4.770741e-02
-6.527021e-01	 6.902753e-01	 1.233387e+00
-6.527021e-01	 6.902753e-01	 2.404007e-01
-6.527021e-01	 6.902753e-01	 9.056262e-01
-6.527021e-01	 6.902753e-01	 5.469152e-01
-2.279128e-02	 9.497266e-01	 1.446750e+00
-2.279128e-02	 9.497266e-01	 4.770741e-02
-2.279128e-02	 9.497266e-01	 1.233387e+00
-2.279128e-02	 9.497266e-01	 2.404007e-01
-2.279128e-02	 9.497266e-01	 9.056262e-01
-2.279128e-02	 9.497266e-01	 5.469152e-01
-5.713633e-01	 7.589756e-01	 1.446750e+00
-5.713633e-01	 7.589756e-01	 4.770741e-02
-5.713633e-01	 7.589756e-01	 1.233387e+00
-5.713633e-01	 7.589756e-01	 2.404007e-01
-5.713633e-01	 7.589756e-01	 9.056262e-01
-5.713633e-01	 7.589756e-01	 5.469152e-01
-1.162478e-01	 9.428608e-01	 1.446750e+00
-1.162478e-01	 9.428608e-01	 4.770741e-02
-1.162478e-01	 9.428608e-01	 1.233387e+00
-1.162478e-01	 9.428608e-01	 2.404007e-01
-1.162478e-01	 9.428608e-01	 9.056262e-01
-1.162478e-01	 9.428608e-01	 5.469152e-01
-4.324423e-01	 8.458686e-01	 1.446750e+00
-4.324423e-01	 8.458686e-01	 4.770741e-02
-4.324423e-01	 8.458686e-01	 1.233387e+00
-4.324423e-01	 8.458686e-01	 2.404007e-01
-4.324423e-01	 8.458686e-01	 9.056262e-01
-4.324423e-01	 8.458686e-01	 5.469152e-01
-2.654351e-01	 9.121646e-01	 1.446750e+00
-2.654351e-01	 9.121646e-01	 4.770741e-02
-2.654351e-01	 9.121646e-01	 1.233387e+00
-2.654351e-01	 9.121646e-01	 2.404007e-01
-2.654351e-01	 9.121646e-01	 9.056262e-01
-2.654351e-01	 9.121646e-01	 5.469152e-01
-9.497266e-01	 2.279128e-02	 1.446750e+00
-9.497266e-01	 2.279128e-02	 4.770741e-02
-9.497266e-01	 2.279128e-02	 1.233387e+00
-9.497266e-01	 2.279128e-02	 2.404007e-01
-9.497266e-01	 2.279128e-02	 9.056262e-01
-9.497266e-01	 2.279128e-02	 5.469152e-01
-6.902753e-01	 6.527021e-01	 1.446750e+00
-6.902753e-01	 6.527021e-01	 4.770741e-02
-6.902753e-01	 6.527021e-01	 1.233387e+00
-6.902753e-01	 6.527021e-01	 2.404007e-01
-6.902753e-01	 6.527021e-01	 9.056262e-01
-6.902753e-01	 6.527021e-01	 5.469152e-01
-9.428608e-01	 1.162478e-01	 1.446750e+00
-9.428608e-01	 1.162478e-01	 4.770741e-02
-9.428608e-01	 1.162478e-01	 1.233387e+00
-9.428608e-01	 1.162478e-01	 2.404007e-01
-9.428608e-01	 1.162478e-01	 9.056262e-01
-9.428608e-01	 1.162478e-01	 5.469152e-01
-7.589756e-01	 5.713633e-01	 1.446750e+00
-7.589756e-01	 5.713633e-01	 4.770741e-02
-7.589756e-01	 5.713633e-01	 1.233387e+00
-7.589756e-01	 5.713633e-01	 2.404007e-01
-7.589756e-01	 5.713633e-01	 9.056262e-01
-7.589756e-01	 5.713633e-01	 5.469152e-01
-9.121646e-01	 2.654351e-01	 1.446750e+00
-9.121646e-01	 2.654351e-01	 4.770741e-02
-9.121646e-01	 2.654351e-01	 1.233387e+00
-9.121646e-01	 2.654351e-01	 2.404007e-01
-9.121646e-01	 2.654351e-01	 9.056262e-01
-9.121646e-01	 2.654351e-01	 5.469152e-01
-8.458686e-01	 4.324423e-01	 1.446750e+00
-8.458686e-01	 4.324423e-01	 4.770741e-02
-8.458686e-01	 4.324423e-01	 1.233387e+00
-8.458686e-01	 4.324423e-01	 2.404007e-01
-8.458686e-01	 4.324423e-01	 9.056262e-01
-8.458686e-01	 4.324423e-01	 5.469152e-01
-6.527021e-01	 6.902753e-01	 2.952293e+00
-6.527021e-01	 6.902753e-01	 1.553250e+00
-6.527021e-01	 6.902753e-01	 2.759599e+00
-6.527021e-01	 6.902753e-01	 1.766613e+00
-6.527021e-01	 6.902753e-01	 2.453085e+00
-6.527021e-01	 6.902753e-01	 2.094374e+00
-2.279128e-02	 9.497266e-01	 2.952293e+00
-2.279128e-02	 9.497266e-01	 1.553250e+00
-2.279128e-02	 9.497266e-01	 2.759599e+00
-2.279128e-02	 9.497266e-01	 1.766613e+00
-2.279128e-02	 9.497266e-01	 2.453085e+00
-2.279128e-02	 9.497266e-01	 2.094374e+00
-5.713633e-01	 7.589756e-01	 2.952293e+00
-5.713633e-01	 7.589756e-01	 1.553250e+00
-5.713633e-01	 7.589756e-01	 2.759599e+00
-5.713633e-01	 7.589756e-01	 1.766613e+00
-5.713633e-01	 7.589756e-01	 2.453085e+00
-5.713633e-01	 7.589756e-01	 2.094374e+00
-1.162478e-01	 9.428608e-01	 2.952293e+00
-1.162478e-01	 9.428608e-01	 1.553250e+00
-1.162478e-01	 9.428608e-01	 2.759599e+00
-1.162478e-01	 9.428608e-01	 1.766613e+00
-1.162478e-01	 9.428608e-01	 2.453085e+00
-1.162478e-01	 9.428608e-01	 2.094374e+00
-4.324423e-01	 8.458686e-01	 2.952293e+00
-4.324423e-01	 8.458686e-01	 1.553250e+00
-4.324423e-01	 8.458686e-01	 2.759599e+00
-4.324423e-01	 8.458686e-01	 1.766613e+00
-4.324423e-01	 8.458686e-01	 2.453085e+00
-4.324423e-01	 8.458686e-01	 2.094374e+00
-2.654351e-01	 9.121646e-01	 2.952293e+00
-2.654351e-01	 9.121646e-01	 1.553250e+00
-2.654351e-01	 9.121646e-01	 2.759599e+00
-2.654351e-01	 9.121646e-01	 1.766613e+00
-2.654351e-01	 9.121646e-01	 2.453085e+00
-2.654351e-01	 9.121646e-01	 2.094374e+00
-9.497266e-01	 2.279128e-02	 2.952293e+00
-9.497266e-01	 2.279128e-02	 1.553250e+00
-9.497266e-01	 2.279128e-02	 2.759599e+00
-9.497266e-01	 2.279128e-02	 1.766613e+00
-9.497266e-01	 2.279128e-02	 2.453085e+00
-9.497266e-01	 2.279128e-02	 2.094374e+00
-6.902753e-01	 6.527021e-01	 2.952293e+00
-6.902753e-01	 6.527021e-01	 1.553250e+00
-6.902753e-01	 6.527021e-01	 2.759599e+00
-6.902753e-01	 6.527021e-01	 1.766613e+00
-6.902753e-01	 6.527021e-01	 2.453085e+00
-6.902753e-01	 6.527021e-01	 2.094374e+00
-9.428608e-01	 1.162478e-01	 2.952293e+00
-9.428608e-01	 1.162478e-01	 1.553250e+00
-9.428608e-01	 1.162478e-01	 2.759599e+00
-9.428608e-01	 1.162478e-01	 1.766613e+00
-9.428608e-01	 1.162478e-01	 2.453085e+00
-9.428608e-01	 1.162478e-01	 2.094374e+00
-7.589756e-01	 5.713633e-01	 2.952293e+00
-7.589756e-01	 5.713633e-01	 1.553250e+00
-7.589756e-01	 5.713633e-01	 2.759599e+00
-7.589756e-01	 5.713633e-01	 1.766613e+00
-7.589756e-01	 5.713633e-01	 2.453085e+00
-7.589756e-01	 5.713633e-01	 2.094374e+00
-9.121646e-01	 2.654351e-01	 2.952293e+00
-9.121646e-01	 2.654351e-01	 1.553250e+00
-9.121646e-01	 2.654351e-01	 2.759599e+00
-9.121646e-01	 2.654351e-01	 1.766613e+00
-9.121646e-01	 2.654351e-01	 2.453085e+00
-9.121646e-01	 2.654351e-01	 2.094374e+00
-8.458686e-01	 4.324423e-01	 2.952293e+00
-8.458686e-01	 4.324423e-01	 1.553250e+00
-8.458686e-01	 4.324423e-01	 2.759599e+00
-8.458686e-01	 4.324423e-01	 1.766613e+00
-8.458686e-01	 4.324423e-01	 2.453085e+00
-8.458686e-01	 4.324423e-01	 2.094374e+00
6.902753e-01	 6.527021e-01	 1.446750e+00
6.902753e-01	 6.527021e-01	 4.770741e-02
6.902753e-01	 6.527021e-01	 1.233387e+00
6.902753e-01	 6.527021e-01	 2.404007e-01
6.902753e-01	 6.527021e-01	 9.056262e-01
6.902753e-01	 6.527021e-01	 5.469152e-01
9.497266e-01	 2.279128e-02	 1.446750e+00
9.497266e-01	 2.279128e-02	 4.770741e-02
9.497266e-01	 2.279128e-02	 1.233387e+00
9.497266e-01	 2.279128e-02	 2.404007e-01
9.497266e-01	 2.279128e-02	 9.056262e-01
9.497266e-01	 2.279128e-02	 5.469152e-01
7.589756e-01	 5.713633e-01	 1.446750e+00
7.589756e-01	 5.713633e-01	 4.770741e-02
7.589756e-01	 5.713633e-01	 1.233387e+00
7.589756e-01	 5.713633e-01	 2.404007e-01
7.589756e-01	 5.713633e-01	 9.056262e-01
7.589756e-01	 5.713633e-01	 5.469152e-01
9.428608e-01	 1.162478e-01	 1.446750e+00
9.428608e-01	 1.162478e-01	 4.770741e-02
9.428608e-01	 1.162478e-01	 1.233387e+00
9.428608e-01	 1.162478e-01	 2.404007e-01
9.428608e-01	 1.162478e-01	 9.056262e-01
9.428608e-01	 1.162478e-01	 5.469152e-01
8.458686e-01	 4.324423e-01	 1.446750e+00
8.458686e-01	 4.324423e-01	 4.770741e-02
8.458686e-01	 4.324423e-01	 1.233387e+00
8.458686e-01	 4.324423e-01	 2.404007e-01
8.458686e-01	 4.324423e-01	 9.056262e-01
8.458686e-01	 4.324423e-01	 5.469152e-01
9.121646e-01	 2.654351e-01	 1.446750e+00
9.121646e-01	 2.654351e-01	 4.770741e-02
9.121646e-01	 2.654351e-01	 1.233387e+00
9.121646e-01	 2.654351e-01	 2.404007e-01
9.121646e-01	 2.654351e-01	 9.056262e-01
9.121646e-01	 2.654351e-01	 5.469152e-01
2.279128e-02	 9.497266e-01	 1.446750e+00
2.279128e-02	 9.497266e-01	 4.770741e-02
2.279128e-02	 9.497266e-01	 1.233387e+00
2.279128e-02	 9.497266e-01	 2.404007e-01
2.279128e-02	 9.497266e-01	 9.056262e-01
2.279128e-02	 9.497266e-01	 5.469152e-01
6.527021e-01	 6.902753e-01	 1.446750e+00
6.527021e-01	 6.902753e-01	 4.770741e-02
6.527021e-01	 6.902753e-01	 1.233387e+00
6.527021e-01	 6.902753e-01	 2.404007e-01
6.527021e-01	 6.902753e-01	 9.056262e-01
6.527021e-01	 6.902753e-01	 5.469152e-01
1.162478e-01	 9.428608e-01	 1.446750e+00
1.162478e-01	 9.428608e-01	 4.770741e-02
1.162478e-01	 9.428608e-01	 1.233387e+00
1.162478e-01	 9.428608e-01	 2.404007e-01
1.162478e-01	 9.428608e-01	 9.056262e-01
1.162478e-01	 9.428608e-01	 5.469152e-01
5.713633e-01	 7.589756e-01	 1.446750e+00
5.713633e-01	 7.589756e-01	 4.770741e-02
5.713633e-01	 7.589756e-01	 1.233387e+00
5.713633e-01	 7.589756e-01	 2.404007e-01
5.713633e-01	 7.589756e-01	 9.056262e-01
5.713633e-01	 7.589756e-01	 5.469152e-01
2.654351e-01	 9.121646e-01	 1.446750e+00
2.654351e-01	 9.121646e-01	 4.770741e-02
2.654351e-01	 9.121646e-01	 1.233387e+00
2.654351e-01	 9.121646e-01	 2.404007e-01
2.654351e-01	 9.121646e-01	 9.056262e-01
2.654351e-01	 9.121646e-01	 5.469152e-01
4.324423e-01	 8.458686e-01	 1.446750e+00
4.324423e-01	 8.458686e-01	 4.770741e-02
4.324423e-01	 8.458686e-01	 1.233387e+00
4.324423e-01	 8.458686e-01	 2.404007e-01
4.324423e-01	 8.458686e-01	 9.056262e-01
4.324423e-01	 8.458686e-01	 5.469152e-01
6.902753e-01	 6.527021e-01	 2.952293e+00
6.902753e-01	 6.527021e-01	 1.553250e+00
6.902753e-01	 6.527021e-01	 2.759599e+00
6.902753e-01	 6.527021e-01	 1.766613e+00
6.902753e-01	 6.527021e-01	 2.453085e+00
6.902753e-01	 6.527021e-01	 2.094374e+00
9.497266e-01	 2.279128e-02	 2.952293e+00
9.497266e-01	 2.279128e-02	 1.553250e+00
9.497266e-01	 2.279128e-02	 2.759599e+00
9.497266e-01	 2.279128e-02	 1.766613e+00
9.497266e-01	 2.279128e-02	 2.453085e+00
9.497266e-01	 2.279128e-02	 2.094374e+00
7.589756e-01	 5.713633e-01	 2.952293e+00
7.589756e-01	 5.713633e-01	 1.553250e+00
7.589756e-01	 5.713633e-01	 2.759599e+00
7.589756e-01	 5.713633e-01	 1.766613e+00
7.589756e-01	 5.713633e-01	 2.453085e+00
7.589756e-01	 5.713633e-01	 2.094374e+00
9.428608e-01	 1.162478e-01	 2.952293e+00
9.428608e-01	 1.162478e-01	 1.553250e+00
9.428608e-01	 1.162478e-01	 2.759599e+00
[...]
POINT_DATA 576
VECTORS displacement float
-6.870548e-01	 7.266056e-01	 4.976749e-17
-6.870548e-01	 7.266056e-01	 5.304621e-16
-6.870548e-01	 7.266056e-01	 2.145663e-16
-6.870548e-01	 7.266056e-01	 -5.719777e-16
-6.870548e-01	 7.266056e-01	 1.126409e-16
-6.870548e-01	 7.266056e-01	 -2.918391e-18
-2.399083e-02	 9.997122e-01	 -7.927986e-17
-2.399083e-02	 9.997122e-01	 -9.399004e-17
-2.399083e-02	 9.997122e-01	 2.438758e-16
-2.399083e-02	 9.997122e-01	 -3.504634e-16
-2.399083e-02	 9.997122e-01	 1.096904e-16
-2.399083e-02	 9.997122e-01	 -2.934597e-17
-6.014350e-01	 7.989217e-01	 -8.888051e-18
-6.014350e-01	 7.989217e-01	 5.380670e-16
-6.014350e-01	 7.989217e-01	 2.426517e-16
-6.014350e-01	 7.989217e-01	 -3.463182e-16
-6.014350e-01	 7.989217e-01	 8.714298e-17
-6.014350e-01	 7.989217e-01	 -1.384331e-17
-1.223661e-01	 9.924850e-01	 8.762578e-19
-1.223661e-01	 9.924850e-01	 4.698022e-16
-1.223661e-01	 9.924850e-01	 2.208645e-16
-1.223661e-01	 9.924850e-01	 -6.529432e-16
-1.223661e-01	 9.924850e-01	 9.076500e-17
-1.223661e-01	 9.924850e-01	 4.253145e-17
-4.552024e-01	 8.903880e-01	 7.838663e-17
-4.552024e-01	 8.903880e-01	 2.299212e-16
-4.552024e-01	 8.903880e-01	 2.427018e-16
-4.552024e-01	 8.903880e-01	 -4.446894e-16
-4.552024e-01	 8.903880e-01	 -9.012793e-18
-4.552024e-01	 8.903880e-01	 -8.487461e-18
-2.794054e-01	 9.601732e-01	 8.435107e-17
-2.794054e-01	 9.601732e-01	 2.184719e-16
-2.794054e-01	 9.601732e-01	 2.258419e-16
-2.794054e-01	 9.601732e-01	 -6.630602e-16
-2.794054e-01	 9.601732e-01	 1.708754e-17
-2.794054e-01	 9.601732e-01	 2.099592e-16
-9.997122e-01	 2.399083e-02	 -3.512859e-17
-9.997122e-01	 2.399083e-02	 1.223497e-16
-9.997122e-01	 2.399083e-02	 2.656250e-16
-9.997122e-01	 2.399083e-02	 -7.241790e-16
-9.997122e-01	 2.399083e-02	 -9.046401e-17
-9.997122e-01	 2.399083e-02	 -1.023671e-16
-7.266056e-01	 6.870548e-01	 3.386457e-18
-7.266056e-01	 6.870548e-01	 2.254986e-16
-7.266056e-01	 6.870548e-01	 2.686062e-16
-7.266056e-01	 6.870548e-01	 -3.186968e-16
-7.266056e-01	 6.870548e-01	 -1.961239e-17
-7.266056e-01	 6.870548e-01	 -2.815005e-18
-9.924850e-01	 1.223661e-01	 -6.853407e-17
-9.924850e-01	 1.223661e-01	 2.318640e-16
-9.924850e-01	 1.223661e-01	 8.922953e-17
-9.924850e-01	 1.223661e-01	 -7.021374e-16
-9.924850e-01	 1.223661e-01	 -3.846524e-17
-9.924850e-01	 1.223661e-01	 4.387481e-17
-7.989217e-01	 6.014350e-01	 1.433892e-16
-7.989217e-01	 6.014350e-01	 1.904475e-16
-7.989217e-01	 6.014350e-01	 3.261949e-16
-7.989217e-01	 6.014350e-01	 -4.966171e-16
-7.989217e-01	 6.014350e-01	 8.956447e-17
-7.989217e-01	 6.014350e-01	 5.929789e-17
-9.601732e-01	 2.794054e-01	 1.014078e-16
-9.601732e-01	 2.794054e-01	 4.736922e-16
-9.601732e-01	 2.794054e-01	 3.154857e-16
-9.601732e-01	 2.794054e-01	 -3.053001e-16
-9.601732e-01	 2.794054e-01	 5.747145e-17
-9.601732e-01	 2.794054e-01	 1.309528e-17
-8.903880e-01	 4.552024e-01	 5.285155e-19
-8.903880e-01	 4.552024e-01	 3.206938e-16
-8.903880e-01	 4.552024e-01	 1.628394e-16
-8.903880e-01	 4.552024e-01	 -3.962258e-16
-8.903880e-01	 4.552024e-01	 2.554934e-17
-8.903880e-01	 4.552024e-01	 8.438100e-17
-6.870548e-01	 7.266056e-01	 6.784609e-16
-6.870548e-01	 7.266056e-01	 1.490725e-16
-6.870548e-01	 7.266056e-01	 -1.631183e-16
-6.870548e-01	 7.266056e-01	 1.152816e-16
-6.870548e-01	 7.266056e-01	 2.661477e-17
-6.870548e-01	 7.266056e-01	 -8.025070e-17
-2.399083e-02	 9.997122e-01	 5.342897e-16
-2.399083e-02	 9.997122e-01	 -5.198022e-18
-2.399083e-02	 9.997122e-01	 1.376609e-16
-2.399083e-02	 9.997122e-01	 8.464556e-17
-2.399083e-02	 9.997122e-01	 1.049689e-16
-2.399083e-02	 9.997122e-01	 -1.783117e-16
-6.014350e-01	 7.989217e-01	 1.882038e-16
-6.014350e-01	 7.989217e-01	 9.905315e-17
-6.014350e-01	 7.989217e-01	 -1.742252e-19
-6.014350e-01	 7.989217e-01	 1.191396e-16
-6.014350e-01	 7.989217e-01	 -1.892820e-17
-6.014350e-01	 7.989217e-01	 -1.481110e-16
-1.223661e-01	 9.924850e-01	 3.061448e-16
-1.223661e-01	 9.924850e-01	 1.623633e-16
-1.223661e-01	 9.924850e-01	 1.475059e-16
-1.223661e-01	 9.924850e-01	 2.203525e-16
-1.223661e-01	 9.924850e-01	 2.223708e-16
-1.223661e-01	 9.924850e-01	 -1.937612e-16
-4.552024e-01	 8.903880e-01	 -7.757233e-18
-4.552024e-01	 8.903880e-01	 1.794943e-16
-4.552024e-01	 8.903880e-01	 1.864442e-17
-4.552024e-01	 8.903880e-01	 1.679192e-16
-4.552024e-01	 8.903880e-01	 -1.471490e-17
-4.552024e-01	 8.903880e-01	 -1.014885e-16
-2.794054e-01	 9.601732e-01	 4.662290e-16
-2.794054e-01	 9.601732e-01	 8.861387e-17
-2.794054e-01	 9.601732e-01	 9.597480e-17
-2.794054e-01	 9.601732e-01	 7.161669e-17
-2.794054e-01	 9.601732e-01	 1.336887e-16
-2.794054e-01	 9.601732e-01	 -4.931144e-17
-9.997122e-01	 2.399083e-02	 3.142414e-16
-9.997122e-01	 2.399083e-02	 -7.049762e-18
-9.997122e-01	 2.399083e-02	 3.102734e-16
-9.997122e-01	 2.399083e-02	 -4.035433e-17
-9.997122e-01	 2.399083e-02	 1.505150e-16
-9.997122e-01	 2.399083e-02	 -1.903209e-16
-7.266056e-01	 6.870548e-01	 2.360328e-16
-7.266056e-01	 6.870548e-01	 1.714523e-16
-7.266056e-01	 6.870548e-01	 -3.808579e-16
-7.266056e-01	 6.870548e-01	 1.921276e-16
-7.266056e-01	 6.870548e-01	 -2.617863e-17
-7.266056e-01	 6.870548e-01	 -1.197552e-16
-9.924850e-01	 1.223661e-01	 3.165402e-16
-9.924850e-01	 1.223661e-01	 1.434805e-16
-9.924850e-01	 1.223661e-01	 2.375398e-18
-9.924850e-01	 1.223661e-01	 2.654827e-16
-9.924850e-01	 1.223661e-01	 1.512107e-16
-9.924850e-01	 1.223661e-01	 9.008355e-17
-7.989217e-01	 6.014350e-01	 1.401834e-16
-7.989217e-01	 6.014350e-01	 2.867891e-16
-7.989217e-01	 6.014350e-01	 -2.226131e-16
-7.989217e-01	 6.014350e-01	 2.007054e-16
-7.989217e-01	 6.014350e-01	 -1.407575e-16
-7.989217e-01	 6.014350e-01	 -1.194371e-16
-9.601732e-01	 2.794054e-01	 3.015868e-16
-9.601732e-01	 2.794054e-01	 2.200806e-16
-9.601732e-01	 2.794054e-01	 -3.090734e-16
-9.601732e-01	 2.794054e-01	 3.524576e-16
-9.601732e-01	 2.794054e-01	 4.404455e-17
-9.601732e-01	 2.794054e-01	 -9.682868e-17
-8.903880e-01	 4.552024e-01	 1.251052e-16
-8.903880e-01	 4.552024e-01	 1.127294e-16
-8.903880e-01	 4.552024e-01	 -1.471118e-16
-8.903880e-01	 4.552024e-01	 2.546798e-16
-8.903880e-01	 4.552024e-01	 -7.486911e-17
-8.903880e-01	 4.552024e-01	 -8.396768e-17
7.266056e-01	 6.870548e-01	 4.976749e-17
7.266056e-01	 6.870548e-01	 5.304621e-16
7.266056e-01	 6.870548e-01	 2.145663e-16
7.266056e-01	 6.870548e-01	 -5.719777e-16
7.266056e-01	 6.870548e-01	 1.126409e-16
7.266056e-01	 6.870548e-01	 -2.918391e-18
9.997122e-01	 2.399083e-02	 -7.927986e-17
9.997122e-01	 2.399083e-02	 -9.399004e-17
9.997122e-01	 2.399083e-02	 2.438758e-16
9.997122e-01	 2.399083e-02	 -3.504634e-16
9.997122e-01	 2.399083e-02	 1.096904e-16
9.997122e-01	 2.399083e-02	 -2.934597e-17
7.989217e-01	 6.014350e-01	 -8.888051e-18
7.989217e-01	 6.014350e-01	 5.380670e-16
7.989217e-01	 6.014350e-01	 2.426517e-16
7.989217e-01	 6.014350e-01	 -3.463182e-16
7.989217e-01	 6.014350e-01	 8.714298e-17
7.989217e-01	 6.014350e-01	 -1.384331e-17
9.924850e-01	 1.223661e-01	 8.762578e-19
9.924850e-01	 1.223661e-01	 4.698022e-16
9.924850e-01	 1.223661e-01	 2.208645e-16
9.924850e-01	 1.223661e-01	 -6.529432e-16
9.924850e-01	 1.223661e-01	 9.076500e-17
9.924850e-01	 1.223661e-01	 4.253145e-17
8.903880e-01	 4.552024e-01	 7.838663e-17
8.903880e-01	 4.552024e-01	 2.299212e-16
8.903880e-01	 4.552024e-01	 2.427018e-16
8.903880e-01	 4.552024e-01	 -4.446894e-16
8.903880e-01	 4.552024e-01	 -9.012793e-18
8.903880e-01	 4.552024e-01	 -8.487461e-18
9.601732e-01	 2.794054e-01	 8.435107e-17
9.601732e-01	 2.794054e-01	 2.184719e-16
9.601732e-01	 2.794054e-01	 2.258419e-16
9.601732e-01	 2.794054e-01	 -6.630602e-16
9.601732e-01	 2.794054e-01	 1.708754e-17
9.601732e-01	 2.794054e-01	 2.099592e-16
2.399083e-02	 9.997122e-01	 -3.512859e-17
2.399083e-02	 9.997122e-01	 1.223497e-16
2.399083e-02	 9.997122e-01	 2.656250e-16
2.399083e-02	 9.997122e-01	 -7.241790e-16
2.399083e-02	 9.997122e-01	 -9.046401e-17
2.399083e-02	 9.997122e-01	 -1.023671e-16
6.870548e-01	 7.266056e-01	 3.386457e-18
6.870548e-01	 7.266056e-01	 2.254986e-16
6.870548e-01	 7.266056e-01	 2.686062e-16
6.870548e-01	 7.266056e-01	 -3.186968e-16
6.870548e-01	 7.266056e-01	 -1.961239e-17
6.870548e-01	 7.266056e-01	 -2.815005e-18
1.223661e-01	 9.924850e-01	 -6.853407e-17
1.223661e-01	 9.924850e-01	 2.318640e-16
1.223661e-01	 9.924850e-01	 8.922953e-17
1.223661e-01	 9.924850e-01	 -7.021374e-16
1.223661e-01	 9.924850e-01	 -3.846524e-17
1.223661e-01	 9.924850e-01	 4.387481e-17
6.014350e-01	 7.989217e-01	 1.433892e-16
6.014350e-01	 7.989217e-01	 1.904475e-16
6.014350e-01	 7.989217e-01	 3.261949e-16
6.014350e-01	 7.989217e-01	 -4.966171e-16
6.014350e-01	 7.989217e-01	 8.956447e-17
6.014350e-01	 7.989217e-01	 5.929789e-17
2.794054e-01	 9.601732e-01	 1.014078e-16
2.794054e-01	 9.601732e-01	 4.736922e-16
2.794054e-01	 9.601732e-01	 3.154857e-16
2.794054e-01	 9.601732e-01	 -3.053001e-16
2.794054e-01	 9.601732e-01	 5.747145e-17
2.794054e-01	 9.601732e-01	 1.309528e-17
4.552024e-01	 8.903880e-01	 5.285155e-19
4.552024e-01	 8.903880e-01	 3.206938e-16
4.552024e-01	 8.903880e-01	 1.628394e-16
4.552024e-01	 8.903880e-01	 -3.962258e-16
4.552024e-01	 8.903880e-01	 2.554934e-17
4.552024e-01	 8.903880e-01	 8.438100e-17
7.266056e-01	 6.870548e-01	 6.784609e-16
7.266056e-01	 6.870548e-01	 1.490725e-16
7.266056e-01	 6.870548e-01	 -1.631183e-16
7.266056e-01	 6.870548e-01	 1.152816e-16
7.266056e-01	 6.870548e-01	 2.661477e-17
7.266056e-01	 6.870548e-01	 -8.025070e-17
9.997122e-01	 2.399083e-02	 5.342897e-16
9.997122e-01	 2.399083e-02	 -5.198022e-18
9.997122e-01	 2.399083e-02	 1.376609e-16
9.997122e-01	 2.399083e-02	 8.464556e-17
9.997122e-01	 2.399083e-02	 1.049689e-16
9.997122e-01	 2.399083e-02	 -1.783117e-16
7.989217e-01	 6.014350e-01	 1.882038e-16
7.989217e-01	 6.014350e-01	 9.905315e-17
7.989217e-01	 6.014350e-01	 -1.742252e-19
7.989217e-01	 6.014350e-01	 1.191396e-16
7.989217e-01	 6.014350e-01	 -1.892820e-17
7.989217e-01	 6.014350e-01	 -1.481110e-16
9.924850e-01	 1.223661e-01	 3.061448e-16
9.924850e-01	 1.223661e-01	 1.623633e-16
9.924850e-01	 1.223661e-01	 1.475059e-16
9.924850e-01	 1.223661e-01	 2.203525e-16
9.924850e-01	 1.223661e-01	 2.223708e-16
9.924850e-01	 1.223661e-01	 -1.937612e-16
8.903880e-01	 4.552024e-01	 -7.757233e-18
8.903880e-01	 4.552024e-01	 1.794943e-16
8.903880e-01	 4.552024e-01	 1.864442e-17
8.903880e-01	 4.552024e-01	 1.679192e-16
8.903880e-01	 4.552024e-01	 -1.471490e-17
8.903880e-01	 4.552024e-01	 -1.014885e-16
9.601732e-01	 2.794054e-01	 4.662290e-16
9.601732e-01	 2.794054e-01	 8.861387e-17
9.601732e-01	 2.794054e-01	 9.597480e-17
9.601732e-01	 2.794054e-01	 7.161669e-17
9.601732e-01	 2.794054e-01	 1.336887e-16
9.601732e-01	 2.794054e-01	 -4.931144e-17
2.399083e-02	 9.997122e-01	 3.142414e-16
2.399083e-02	 9.997122e-01	 -7.049762e-18
2.399083e-02	 9.997122e-01	 3.102734e-16
2.399083e-02	 9.997122e-01	 -4.035433e-17
2.399083e-02	 9.997122e-01	 1.505150e-16
2.399083e-02	 9.997122e-01	 -1.903209e-16
6.870548e-01	 7.266056e-01	 2.360328e-16
6.870548e-01	 7.266056e-01	 1.714523e-16
6.870548e-01	 7.266056e-01	 -3.808579e-16
6.870548e-01	 7.266056e-01	 1.921276e-16
6.870548e-01	 7.266056e-01	 -2.617863e-17
6.870548e-01	 7.266056e-01	 -1.197552e-16
1.223661e-01	 9.924850e-01	 3.165402e-16
1.223661e-01	 9.924850e-01	 1.434805e-16
1.223661e-01	 9.924850e-01	 2.375398e-18
1.223661e-01	 9.924850e-01	 2.654827e-16
1.223661e-01	 9.924850e-01	 1.512107e-16
1.223661e-01	 9.924850e-01	 9.008355e-17
6.014350e-01	 7.989217e-01	 1.401834e-16
6.014350e-01	 7.989217e-01	 2.867891e-16
6.014350e-01	 7.989217e-01	 -2.226131e-16
6.014350e-01	 7.989217e-01	 2.007054e-16
6.014350e-01	 7.989217e-01	 -1.407575e-16
6.014350e-01	 7.989217e-01	 -1.194371e-16
2.794054e-01	 9.601732e-01	 3.015868e-16
2.794054e-01	 9.601732e-01	 2.200806e-16
2.794054e-01	 9.601732e-01	 -3.090734e-16
2.794054e-01	 9.601732e-01	 3.524576e-16
2.794054e-01	 9.601732e-01	 4.404455e-17
2.794054e-01	 9.601732e-01	 -9.682868e-17
4.552024e-01	 8.903880e-01	 1.251052e-16
4.552024e-01	 8.903880e-01	 1.127294e-16
4.552024e-01	 8.903880e-01	 -1.471118e-16
4.552024e-01	 8.903880e-01	 2.546798e-16
4.552024e-01	 8.903880e-01	 -7.486911e-17
4.552024e-01	 8.903880e-01	 -8.396768e-17
-7.266056e-01	 -6.870548e-01	 4.976749e-17
-7.266056e-01	 -6.870548e-01	 5.304621e-16
-7.266056e-01	 -6.870548e-01	 2.145663e-16
-7.266056e-01	 -6.870548e-01	 -5.719777e-16
-7.266056e-01	 -6.870548e-01	 1.126409e-16
-7.266056e-01	 -6.870548e-01	 -2.918391e-18
-9.997122e-01	 -2.399083e-02	 -7.927986e-17
-9.997122e-01	 -2.399083e-02	 -9.399004e-17
-9.997122e-01	 -2.399083e-02	 2.438758e-16
-9.997122e-01	 -2.399083e-02	 -3.504634e-16
-9.997122e-01	 -2.399083e-02	 1.096904e-16
-9.997122e-01	 -2.399083e-02	 -2.934597e-17
-7.989217e-01	 -6.014350e-01	 -8.888051e-18
-7.989217e-01	 -6.014350e-01	 5.380670e-16
-7.989217e-01	 -6.014350e-01	 2.426517e-16
-7.989217e-01	 -6.014350e-01	 -3.463182e-16
-7.989217e-01	 -6.014350e-01	 8.714298e-17
-7.989217e-01	 -6.014350e-01	 -1.384331e-17
-9.924850e-01	 -1.223661e-01	 8.762578e-19
-9.924850e-01	 -1.223661e-01	 4.698022e-16
-9.924850e-01	 -1.223661e-01	 2.208645e-16
-9.924850e-01	 -1.223661e-01	 -6.529432e-16
-9.924850e-01	 -1.223661e-01	 9.076500e-17
-9.924850e-01	 -1.223661e-01	 4.253145e-17
-8.903880e-01	 -4.552024e-01	 7.838663e-17
-8.903880e-01	 -4.552024e-01	 2.299212e-16
-8.903880e-01	 -4.552024e-01	 2.427018e-16
-8.903880e-01	 -4.552024e-01	 -4.446894e-16
-8.903880e-01	 -4.552024e-01	 -9.012793e-18
-8.903880e-01	 -4.552024e-01	 -8.487461e-18
-9.601732e-01	 -2.794054e-01	 8.435107e-17
-9.601732e-01	 -2.794054e-01	 2.184719e-16
-9.601732e-01	 -2.794054e-01	 2.258419e-16
-9.601732e-01	 -2.794054e-01	 -6.630602e-16
-9.601732e-01	 -2.794054e-01	 1.708754e-17
-9.601732e-01	 -2.794054e-01	 2.099592e-16
-2.399083e-02	 -9.997122e-01	 -3.512859e-17
-2.399083e-02	 -9.997122e-01	 1.223497e-16
-2.399083e-02	 -9.997122e-01	 2.656250e-16
-2.399083e-02	 -9.997122e-01	 -7.241790e-16
-2.399083e-02	 -9.997122e-01	 -9.046401e-17
-2.399083e-02	 -9.997122e-01	 -1.023671e-16
-6.870548e-01	 -7.266056e-01	 3.386457e-18
-6.870548e-01	 -7.266056e-01	 2.254986e-16
-6.870548e-01	 -7.266056e-01	 2.686062e-16
-6.870548e-01	 -7.266056e-01	 -3.186968e-16
-6.870548e-01	 -7.266056e-01	 -1.961239e-17
-6.870548e-01	 -7.266056e-01	 -2.815005e-18
-1.223661e-01	 -9.924850e-01	 -6.853407e-17
-1.223661e-01	 -9.924850e-01	 2.318640e-16
-1.223661e-01	 -9.924850e-01	 8.922953e-17
-1.223661e-01	 -9.924850e-01	 -7.021374e-16
-1.223661e-01	 -9.924850e-01	 -3.846524e-17
-1.223661e-01	 -9.924850e-01	 4.387481e-17
-6.014350e-01	 -7.989217e-01	 1.433892e-16
-6.014350e-01	 -7.989217e-01	 1.904475e-16
-6.014350e-01	 -7.989217e-01	 3.261949e-16
-6.014350e-01	 -7.989217e-01	 -4.966171e-16
-6.014350e-01	 -7.989217e-01	 8.956447e-17
-6.014350e-01	 -7.989217e-01	 5.929789e-17
-2.794054e-01	 -9.601732e-01	 1.014078e-16
-2.794054e-01	 -9.601732e-01	 4.736922e-16
-2.794054e-01	 -9.601732e-01	 3.154857e-16
-2.794054e-01	 -9.601732e-01	 -3.053001e-16
-2.794054e-01	 -9.601732e-01	 5.747145e-17
-2.794054e-01	 -9.601732e-01	 1.309528e-17
-4.552024e-01	 -8.903880e-01	 5.285155e-19
-4.552024e-01	 -8.903880e-01	 3.206938e-16
-4.552024e-01	 -8.903880e-01	 1.628394e-16
-4.552024e-01	 -8.903880e-01	 -3.962258e-16
-4.552024e-01	 -8.903880e-01	 2.554934e-17
-4.552024e-01	 -8.903880e-01	 8.438100e-17
-7.266056e-01	 -6.870548e-01	 6.784609e-16
-7.266056e-01	 -6.870548e-01	 1.490725e-16
-7.266056e-01	 -6.870548e-01	 -1.631183e-16
-7.266056e-01	 -6.870548e-01	 1.152816e-16
-7.266056e-01	 -6.870548e-01	 2.661477e-17
-7.266056e-01	 -6.870548e-01	 -8.025070e-17
-9.997122e-01	 -2.399083e-02	 5.342897e-16
-9.997122e-01	 -2.399083e-02	 -5.198022e-18
-9.997122e-01	 -2.399083e-02	 1.376609e-16
-9.997122e-01	 -2.399083e-02	 8.464556e-17
-9.997122e-01	 -2.399083e-02	 1.049689e-16
-9.997122e-01	 -2.399083e-02	 -1.783117e-16
-7.989217e-01	 -6.014350e-01	 1.882038e-16
-7.989217e-01	 -6.014350e-01	 9.905315e-17
-7.989217e-01	 -6.014350e-01	 -1.742252e-19
-7.989217e-01	 -6.014350e-01	 1.191396e-16
-7.989217e-01	 -6.014350e-01	 -1.892820e-17
-7.989217e-01	 -6.014350e-01	 -1.481110e-16
-9.924850e-01	 -1.223661e-01	 3.061448e-16
-9.924850e-01	 -1.223661e-01	 1.623633e-16
-9.924850e-01	 -1.223661e-01	 1.475059e-16
-9.924850e-01	 -1.223661e-01	 2.203525e-16
-9.924850e-01	 -1.223661e-01	 2.223708e-16
-9.924850e-01	 -1.223661e-01	 -1.937612e-16
-8.903880e-01	 -4.552024e-01	 -7.757233e-18
-8.903880e-01	 -4.552024e-01	 1.794943e-16
-8.903880e-01	 -4.552024e-01	 1.864442e-17
-8.903880e-01	 -4.552024e-01	 1.679192e-16
-8.903880e-01	 -4.552024e-01	 -1.471490e-17
-8.903880e-01	 -4.552024e-01	 -1.014885e-16
-9.601732e-01	 -2.794054e-01	 4.662290e-16
-9.601732e-01	 -2.794054e-01	 8.861387e-17
-9.601732e-01	 -2.794054e-01	 9.597480e-17
-9.601732e-01	 -2.794054e-01	 7.161669e-17
-9.601732e-01	 -2.794054e-01	 1.336887e-16
-9.601732e-01	 -2.794054e-01	 -4.931144e-17
-2.399083e-02	 -9.997122e-01	 3.142414e-16
-2.399083e-02	 -9.997122e-01	 -7.049762e-18
-2.399083e-02	 -9.997122e-01	 3.102734e-16
-2.399083e-02	 -9.997122e-01	 -4.035433e-17
-2.399083e-02	 -9.997122e-01	 1.505150e-16
-2.399083e-02	 -9.997122e-01	 -1.903209e-16
-6.870548e-01	 -7.266056e-01	 2.360328e-16
-6.870548e-01	 -7.266056e-01	 1.714523e-16
-6.870548e-01	 -7.266056e-01	 -3.808579e-16
-6.870548e-01	 -7.266056e-01	 1.921276e-16
-6.870548e-01	 -7.266056e-01	 -2.617863e-17
-6.870548e-01	 -7.266056e-01	 -1.197552e-16
-1.223661e-01	 -9.924850e-01	 3.165402e-16
-1.223661e-01	 -9.924850e-01	 1.434805e-16
-1.223661e-01	 -9.924850e-01	 2.375398e-18
-1.223661e-01	 -9.924850e-01	 2.654827e-16
-1.223661e-01	 -9.924850e-01	 1.512107e-16
-1.223661e-01	 -9.924850e-01	 9.008355e-17
-6.014350e-01	 -7.989217e-01	 1.401834e-16
-6.014350e-01	 -7.989217e-01	 2.867891e-16
-6.014350e-01	 -7.989217e-01	 -2.226131e-16
-6.014350e-01	 -7.989217e-01	 2.007054e-16
-6.014350e-01	 -7.989217e-01	 -1.407575e-16
-6.014350e-01	 -7.989217e-01	 -1.194371e-16
-2.794054e-01	 -9.601732e-01	 3.015868e-16
-2.794054e-01	 -9.601732e-01	 2.200806e-16
-2.794054e-01	 -9.601732e-01	 -3.090734e-16
-2.794054e-01	 -9.601732e-01	 3.524576e-16
-2.794054e-01	 -9.601732e-01	 4.404455e-17
-2.794054e-01	 -9.601732e-01	 -9.682868e-17
-4.552024e-01	 -8.903880e-01	 1.251052e-16
-4.552024e-01	 -8.903880e-01	 1.127294e-16
-4.552024e-01	 -8.903880e-01	 -1.471118e-16
-4.552024e-01	 -8.903880e-01	 2.546798e-16
-4.552024e-01	 -8.903880e-01	 -7.486911e-17
-4.552024e-01	 -8.903880e-01	 -8.396768e-17
6.870548e-01	 -7.266056e-01	 4.976749e-17
6.870548e-01	 -7.266056e-01	 5.304621e-16
6.870548e-01	 -7.266056e-01	 2.145663e-16
6.870548e-01	 -7.266056e-01	 -5.719777e-16
6.870548e-01	 -7.266056e-01	 1.126409e-16
6.870548e-01	 -7.266056e-01	 -2.918391e-18
2.399083e-02	 -9.997122e-01	 -7.927986e-17
2.399083e-02	 -9.997122e-01	 -9.399004e-17
2.399083e-02	 -9.997122e-01	 2.438758e-16
2.399083e-02	 -9.997122e-01	 -3.504634e-16
2.399083e-02	 -9.997122e-01	 1.096904e-16
2.399083e-02	 -9.997122e-01	 -2.934597e-17
6.014350e-01	 -7.989217e-01	 -8.888051e-18
6.014350e-01	 -7.989217e-01	 5.380670e-16
6.014350e-01	 -7.989217e-01	 2.426517e-16
6.014350e-01	 -7.989217e-01	 -3.463182e-16
6.014350e-01	 -7.989217e-01	 8.714298e-17
6.014350e-01	 -7.989217e-01	 -1.384331e-17
1.223661e-01	 -9.924850e-01	 8.762578e-19
1.223661e-01	 -9.924850e-01	 4.698022e-16
1.223661e-01	 -9.924850e-01	 2.208645e-16
1.223661e-01	 -9.924850e-01	 -6.529432e-16
1.223661e-01	 -9.924850e-01	 9.076500e-17
1.223661e-01	 -9.924850e-01	 4.253145e-17
4.552024e-01	 -8.903880e-01	 7.838663e-17
4.552024e-01	 -8.903880e-01	 2.299212e-16
4.552024e-01	 -8.903880e-01	 2.427018e-16
4.552024e-01	 -8.903880e-01	 -4.446894e-16
4.552024e-01	 -8.903880e-01	 -9.012793e-18
4.552024e-01	 -8.903880e-01	 -8.487461e-18
2.794054e-01	 -9.601732e-01	 8.435107e-17
2.794054e-01	 -9.601732e-01	 2.184719e-16
2.794054e-01	 -9.601732e-01	 2.258419e-16
2.794054e-01	 -9.601732e-01	 -6.630602e-16
2.794054e-01	 -9.601732e-01	 1.708754e-17
2.794054e-01	 -9.601732e-01	 2.099592e-16
9.997122e-01	 -2.399083e-02	 -3.512859e-17
9.997122e-01	 -2.399083e-02	 1.223497e-16
9.997122e-01	 -2.399083e-02	 2.656250e-16